
Running Job 1 of 1 mol.qin
qchem mol.qin_4267.0 /tmp/qchem4267/ 0
/global/common/cori/software/qchem/5.2/exe/qcprog.exe_s mol.qin_4267.0 /tmp/qchem4267/
                  Welcome to Q-Chem
     A Quantum Leap Into The Future Of Chemistry


 Q-Chem 5.2, Q-Chem, Inc., Pleasanton, CA (2019)

 License issued to: National Energy Research Scientific Computing Center

 Yihan Shao,  Zhengting Gan,  E. Epifanovsky,  A. T. B. Gilbert,  M. Wormit,  
 J. Kussmann,  A. W. Lange,  A. Behn,  Jia Deng,  Xintian Feng,  D. Ghosh,  
 M. Goldey,  P. R. Horn,  L. D. Jacobson,  I. Kaliman,  T. Kus,  A. Landau,  
 Jie Liu,  E. I. Proynov,  R. M. Richard,  R. P. Steele,  E. J. Sundstrom,  
 H. L. Woodcock III,  P. M. Zimmerman,  D. Zuev,  B. Albrecht,  E. Alguire,  
 S. A. Baeppler,  D. Barton,  Z. Benda,  Y. A. Bernard,  E. J. Berquist,  
 K. B. Bravaya,  H. Burton,  D. Casanova,  Chun-Min Chang,  Yunqing Chen,  
 A. Chien,  K. D. Closser,  M. P. Coons,  S. Coriani,  S. Dasgupta,  
 A. L. Dempwolff,  M. Diedenhofen,  Hainam Do,  R. G. Edgar,  Po-Tung Fang,  
 S. Faraji,  S. Fatehi,  Qingguo Feng,  K. D. Fenk,  J. Fosso-Tande,  
 J. Gayvert,  Qinghui Ge,  A. Ghysels,  G. Gidofalvi,  J. Gomes,  
 J. Gonthier,  A. Gunina,  D. Hait,  M. W. D. Hanson-Heine,  
 P. H. P. Harbach,  A. W. Hauser,  M. F. Herbst,  J. E. Herr,  
 E. G. Hohenstein,  Z. C. Holden,  Kerwin Hui,  B. C. Huynh,  T.-C. Jagau,  
 Hyunjun Ji,  B. Kaduk,  K. Khistyaev,  Jaehoon Kim,  P. Klunzinger,  K. Koh,  
 D. Kosenkov,  L. Koulias,  T. Kowalczyk,  C. M. Krauter,  A. Kunitsa,  
 Ka Un Lao,  A. Laurent,  K. V. Lawler,  Joonho Lee,  D. Lefrancois,  
 S. Lehtola,  D. S. Levine,  Yi-Pei Li,  You-Sheng Lin,  Fenglai Liu,  
 E. Livshits,  A. Luenser,  P. Manohar,  E. Mansoor,  S. F. Manzer,  
 Shan-Ping Mao,  Yuezhi Mao,  N. Mardirossian,  A. V. Marenich,  
 T. Markovich,  L. A. Martinez-Martinez,  S. A. Maurer,  N. J. Mayhall,  
 S. C. McKenzie,  J.-M. Mewes,  P. Morgante,  A. F. Morrison,  
 J. W. Mullinax,  K. Nanda,  T. S. Nguyen-Beck,  R. Olivares-Amaya,  
 J. A. Parkhill,  Zheng Pei,  T. M. Perrine,  F. Plasser,  P. Pokhilko,  
 S. Prager,  A. Prociuk,  E. Ramos,  D. R. Rehn,  F. Rob,  M. Scheurer,  
 M. Schneider,  N. Sergueev,  S. M. Sharada,  S. Sharma,  D. W. Small,  
 T. Stauch,  T. Stein,  Yu-Chuan Su,  A. J. W. Thom,  A. Tkatchenko,  
 T. Tsuchimochi,  N. M. Tubman,  L. Vogt,  M. L. Vidal,  O. Vydrov,  
 M. A. Watson,  J. Wenzel,  M. de Wergifosse,  T. A. Wesolowski,  A. White,  
 J. Witte,  A. Yamada,  Jun Yang,  K. Yao,  S. Yeganeh,  S. R. Yost,  
 Zhi-Qiang You,  A. Zech,  Igor Ying Zhang,  Xing Zhang,  Yan Zhao,  
 Ying Zhu,  B. R. Brooks,  G. K. L. Chan,  C. J. Cramer,  M. S. Gordon,  
 W. J. Hehre,  A. Klamt,  M. W. Schmidt,  C. D. Sherrill,  D. G. Truhlar,  
 A. Aspuru-Guzik,  R. Baer,  A. T. Bell,  N. A. Besley,  Jeng-Da Chai,  
 A. E. DePrince, III,  R. A. DiStasio Jr.,  A. Dreuw,  B. D. Dunietz,  
 T. R. Furlani,  Chao-Ping Hsu,  Yousung Jung,  Jing Kong,  D. S. Lambrecht,  
 WanZhen Liang,  C. Ochsenfeld,  V. A. Rassolov,  L. V. Slipchenko,  
 J. E. Subotnik,  T. Van Voorhis,  J. M. Herbert,  A. I. Krylov,  
 P. M. W. Gill,  M. Head-Gordon

 Contributors to earlier versions of Q-Chem not listed above: 
 R. D. Adamson,  B. Austin,  J. Baker,  G. J. O. Beran,  K. Brandhorst,  
 S. T. Brown,  E. F. C. Byrd,  A. K. Chakraborty,  C.-L. Cheng,  
 Siu Hung Chien,  D. M. Chipman,  D. L. Crittenden,  H. Dachsel,  
 R. J. Doerksen,  A. D. Dutoi,  L. Fusti-Molnar,  W. A. Goddard III,  
 A. Golubeva-Zadorozhnaya,  S. R. Gwaltney,  G. Hawkins,  A. Heyden,  
 S. Hirata,  G. Kedziora,  F. J. Keil,  C. Kelley,  Jihan Kim,  R. A. King,  
 R. Z. Khaliullin,  P. P. Korambath,  W. Kurlancheek,  A. M. Lee,  M. S. Lee,  
 S. V. Levchenko,  Ching Yeh Lin,  D. Liotard,  R. C. Lochan,  I. Lotan,  
 P. E. Maslen,  N. Nair,  D. P. O'Neill,  D. Neuhauser,  E. Neuscamman,  
 C. M. Oana,  R. Olson,  B. Peters,  R. Peverati,  P. A. Pieniazek,  
 Y. M. Rhee,  J. Ritchie,  M. A. Rohrdanz,  E. Rosta,  N. J. Russ,  
 H. F. Schaefer III,  N. E. Schultz,  N. Shenvi,  A. C. Simmonett,  A. Sodt,  
 D. Stuck,  K. S. Thanthiriwatte,  V. Vanovschi,  Tao Wang,  A. Warshel,  
 C. F. Williams,  Q. Wu,  X. Xu,  W. Zhang

 Please cite Q-Chem as follows:
 Y. Shao et al., Mol. Phys. 113, 184-215 (2015)
 DOI: 10.1080/00268976.2014.952696

 Q-Chem 5.2.0 for Intel X86 EM64T Linux

 Parts of Q-Chem use Armadillo 8.300.2 (Tropical Shenanigans).
 http://arma.sourceforge.net/

 Q-Chem begins on Fri Sep 27 15:38:02 2019  

Host: cori05
0

     Scratch files written to /tmp/qchem4267//
 May1019 |scratch|qcdevops|jenkins|workspace|build_RNUM -1
Processing $rem in /global/common/cori/software/qchem/5.2/config/preferences:
	 MEM_TOTAL  96000 
 Now reading second FSM geometry
NAlpha2: 86
NElect   86
Mult     1

Checking the input file for inconsistencies... 	...done.

--------------------------------------------------------------
User input:
--------------------------------------------------------------
$molecule
0 1
O      1.2685981413      0.0001014315     -1.1174481334
C      1.9087559329      1.0883154104     -0.6265173159
C      1.9084282052     -1.0885796880     -0.6271261585
C      2.9441008032      0.7162300642      0.1671284076
C      2.9438849953     -0.7172500955      0.1667274862
H      1.5102722217      2.0431326932     -0.9318424934
H      1.5096570456     -2.0431060069     -0.9329853487
H      3.6248714156      1.3727219493      0.6891225435
H      3.6244578654     -1.3742388124      0.6883542627
C     -1.3944708158      1.1539077155      0.2106790407
N     -2.0493260897      0.0003826593     -0.2133089351
C     -0.1977314935      0.6656647340      0.9801039353
O     -1.7326915223      2.2905821714     -0.0066879493
C     -1.3948377723     -1.1535945810      0.2100113668
C     -0.1979431235     -0.6661768339      0.9797187223
O     -1.7334184677     -2.2900364466     -0.0080121203
H     -2.8988028138      0.0006756281     -0.7575481194
H      0.5075788966      1.3489016407      1.4337344736
H      0.5071501374     -1.3499000972      1.4329539041
****
O      0.9479578270      0.0002001221     -1.2862070597
C      1.1654514144      1.0638666809     -0.3642503655
C      1.1651221037     -1.0640385729     -0.3648507682
C      2.4804055128      0.6653534066      0.2884399855
C      2.4801954153     -0.6662967635      0.2880753610
H      1.0977218374      2.0324358223     -0.8562105233
H      1.0971136057     -2.0323193955     -0.8573398946
H      3.1940513154      1.3470519857      0.7328985074
H      3.1936399211     -1.3484637349      0.7321398845
C     -1.3259426414      1.1696623200      0.1499475393
N     -2.0320556810      0.0003479012     -0.0947194067
C      0.0415516930      0.7712256316      0.6868700692
O     -1.7352971237      2.2874351433     -0.0482862834
C     -1.3263171103     -1.1693341021      0.1492703311
C      0.0413043320     -0.7716464053      0.6864292028
O     -1.7360362803     -2.2868616135     -0.0495918074
H     -2.9511444167      0.0006167870     -0.5172062183
H      0.2199564813      1.2521014449      1.6498455446
H      0.2195489412     -1.2531272149      1.6491307411
$end

$rem
job_type = fsm
basis = 6-31g*
max_scf_cycles = 200
gen_scfman = true
xc_grid = 3
scf_algorithm = diis_gdm
resp_charges = true
symmetry = false
sym_ignore = true
method = wb97xd
fsm_mode = 2
fsm_nnode = 15
fsm_ngrad = 4
fsm_opt_mode = 2
$end
--------------------------------------------------------------
 ----------------------------------------------------------------
             Standard Nuclear Orientation (Angstroms)
    I     Atom           X                Y                Z
 ----------------------------------------------------------------
    1      O       1.2685981413     0.0001014315    -1.1174481334
    2      C       1.9087559329     1.0883154104    -0.6265173159
    3      C       1.9084282052    -1.0885796880    -0.6271261585
    4      C       2.9441008032     0.7162300642     0.1671284076
    5      C       2.9438849953    -0.7172500955     0.1667274862
    6      H       1.5102722217     2.0431326932    -0.9318424934
    7      H       1.5096570456    -2.0431060069    -0.9329853487
    8      H       3.6248714156     1.3727219493     0.6891225435
    9      H       3.6244578654    -1.3742388124     0.6883542627
   10      C      -1.3944708158     1.1539077155     0.2106790407
   11      N      -2.0493260897     0.0003826593    -0.2133089351
   12      C      -0.1977314935     0.6656647340     0.9801039353
   13      O      -1.7326915223     2.2905821714    -0.0066879493
   14      C      -1.3948377723    -1.1535945810     0.2100113668
   15      C      -0.1979431235    -0.6661768339     0.9797187223
   16      O      -1.7334184677    -2.2900364466    -0.0080121203
   17      H      -2.8988028138     0.0006756281    -0.7575481194
   18      H       0.5075788966     1.3489016407     1.4337344736
   19      H       0.5071501374    -1.3499000972     1.4329539041
 ----------------------------------------------------------------
 Nuclear Repulsion Energy =         682.97372826 hartrees
 There are       43 alpha and       43 beta electrons
 Requested basis set is 6-31G(d)
 There are 62 shells and 194 basis functions

 Total QAlloc Memory Limit  96000 MB
 Mega-Array Size       188 MB
 MEM_STATIC part       192 MB
 beginning FSman 

*******************************************
*******************************************
******** Starting FSM Calculation *********
*******************************************
*******************************************
-FSM parameters:
 Maximum displacement of each coordinate during optimization (Angstrom)      0.05
 Maximum optimization steps for each new node                                4
 The scaling factor for optimization (hartrees/Angstrom^2)                   1.75
 The number of LST interpolations used for reparameterization                100
-Aligning product structure to maximum coincidence with the reactant structure
 Total R --> P Distance 1.477891
 New node interpolation distace (Angstroms): 0.10
-Performing force calculation on reactant structure in state:0
 ----------------------------------------------------------------
             Standard Nuclear Orientation (Angstroms)
    I     Atom           X                Y                Z
 ----------------------------------------------------------------
    1      O       1.2685981413     0.0001014315    -1.1174481334
    2      C       1.9087559329     1.0883154104    -0.6265173159
    3      C       1.9084282052    -1.0885796880    -0.6271261585
    4      C       2.9441008032     0.7162300642     0.1671284076
    5      C       2.9438849953    -0.7172500955     0.1667274862
    6      H       1.5102722217     2.0431326932    -0.9318424934
    7      H       1.5096570456    -2.0431060069    -0.9329853487
    8      H       3.6248714156     1.3727219493     0.6891225435
    9      H       3.6244578654    -1.3742388124     0.6883542627
   10      C      -1.3944708158     1.1539077155     0.2106790407
   11      N      -2.0493260897     0.0003826593    -0.2133089351
   12      C      -0.1977314935     0.6656647340     0.9801039353
   13      O      -1.7326915223     2.2905821714    -0.0066879493
   14      C      -1.3948377723    -1.1535945810     0.2100113668
   15      C      -0.1979431235    -0.6661768339     0.9797187223
   16      O      -1.7334184677    -2.2900364466    -0.0080121203
   17      H      -2.8988028138     0.0006756281    -0.7575481194
   18      H       0.5075788966     1.3489016407     1.4337344736
   19      H       0.5071501374    -1.3499000972     1.4329539041
 ----------------------------------------------------------------
 Nuclear Repulsion Energy =         682.97372826 hartrees
 There are       43 alpha and       43 beta electrons
 Requested basis set is 6-31G(d)
 There are 62 shells and 194 basis functions
 A cutoff of  1.0D-12 yielded   1686 shell pairs
 There are     17444 function pairs
 Smallest overlap matrix eigenvalue = 9.25E-04

 Scale SEOQF with 1.000000e-01/1.000000e-01/1.000000e+00

 Standard Electronic Orientation quadrupole field applied
 Nucleus-field energy     =    -0.0000000164 hartrees
 Guess from superposition of atomic densities
 Warning:  Energy on first SCF cycle will be non-variational
 SAD guess density has 86.000000 electrons

 -----------------------------------------------------------------------
  General SCF calculation program by
  Eric Jon Sundstrom, Paul Horn, Yuezhi Mao, Dmitri Zuev, Alec White,
  David Stuck, Shaama M.S., Shane Yost, Joonho Lee, David Small,
  Daniel Levine, Susi Lehtola, Hugh Burton, Evgeny Epifanovsky
 -----------------------------------------------------------------------
 Exchange:     0.2220 Hartree-Fock + 1.0000 wB97X-D + LR-HF
 Correlation:  1.0000 wB97X-D
 Using SG-3 standard quadrature grid
 Dispersion:   Grimme D
 using 32 threads for integral computing
 -------------------------------------------------------
 OpenMP Integral computing Module                
 Release: version 1.0, May 2013, Q-Chem Inc. Pittsburgh 
 -------------------------------------------------------
 using 32 threads for integral computing
 -------------------------------------------------------
 OpenMP Integral computing Module                
 Release: version 1.0, May 2013, Q-Chem Inc. Pittsburgh 
 -------------------------------------------------------
 A restricted SCF calculation will be
 performed using DIIS, GDM
 SCF converges when RMS gradient is below 1.0e-08
 ---------------------------------------
  Cycle       Energy         DIIS error
 ---------------------------------------
    1    -592.6630357804      6.01e-02  
    2    -589.0243329918      7.38e-03  Done DIIS. Switching to GDM
 ---------------------------------------
  Cycle       Energy        RMS Gradient
 ---------------------------------------
    1    -589.0243329918      2.65e-01   Descent step
    2    -589.2177019258      7.34e-02   Normal BFGS step
    3    -589.2382647440      3.03e-02   Normal BFGS step
    4    -589.2438965710      6.58e-03   Normal BFGS step
    5    -589.2444692213      2.37e-03   Normal BFGS step
    6    -589.2445568610      1.03e-03   Normal BFGS step
    7    -589.2445708629      6.42e-04   Normal BFGS step
    8    -589.2445727402      2.85e-04   Normal BFGS step
    9    -589.2445734913      7.11e-05   Normal BFGS step
   10    -589.2445735580      3.38e-05   Normal BFGS step
   11    -589.2445735676      1.24e-05   Normal BFGS step
   12    -589.2445735684      3.50e-06   Normal BFGS step
   13    -589.2445735685      1.91e-06   Normal BFGS step
   14    -589.2445735686      7.82e-07   Normal BFGS step
   15    -589.2445735686      3.67e-07   Normal BFGS step
   16    -589.2445735686      8.90e-08   Normal BFGS step
   17    -589.2445735686      4.14e-08   Normal BFGS step
   18    -589.2445735686      2.93e-08   Normal BFGS step
   19    -589.2445735686      4.98e-09  Convergence criterion met
 ---------------------------------------
 SCF time:   CPU 557.23s  wall 17.00s 
 SCF   energy in the final basis set =     -589.2445735686
 Total energy in the final basis set =     -589.2445735686
 
 --------------------------------------------------------------
 
                    Orbital Energies (a.u.)
 --------------------------------------------------------------
 
 Alpha MOs
 -- Occupied --
-19.3508 -19.2695 -19.2695 -14.4957 -10.4271 -10.4271 -10.3614 -10.3614
-10.3264 -10.3255 -10.3143 -10.3138  -1.2312  -1.1750  -1.1571  -1.0576
 -0.9145  -0.9112  -0.8606  -0.7688  -0.7124  -0.7062  -0.6905  -0.6750
 -0.6485  -0.5859  -0.5769  -0.5563  -0.5451  -0.5400  -0.5386  -0.5253
 -0.5092  -0.5054  -0.4945  -0.4833  -0.4692  -0.3795  -0.3752  -0.3692
 -0.3600  -0.3466  -0.3202
 -- Virtual --
 -0.0138   0.0774   0.1279   0.1486   0.1718   0.1760   0.1874   0.2042
  0.2233   0.2241   0.2319   0.2491   0.2651   0.2784   0.2951   0.3014
  0.3187   0.3826   0.3886   0.4226   0.4559   0.4823   0.5105   0.5232
  0.5515   0.5815   0.5827   0.6117   0.6456   0.6463   0.6466   0.6536
  0.6750   0.6842   0.6921   0.6946   0.7227   0.7254   0.7461   0.7598
  0.8016   0.8018   0.8381   0.8551   0.8767   0.8922   0.8988   0.8990
  0.9129   0.9226   0.9528   0.9589   0.9617   0.9731   0.9851   0.9978
  1.0104   1.0394   1.0608   1.0762   1.1134   1.1313   1.1614   1.1637
  1.1750   1.1755   1.2117   1.2592   1.2969   1.3646   1.3830   1.4071
  1.4080   1.4338   1.4450   1.4808   1.4833   1.4977   1.4997   1.5500
  1.5583   1.5636   1.5992   1.6382   1.6398   1.6859   1.7516   1.7766
  1.8048   1.8477   1.8538   1.8760   1.8816   1.8843   1.8894   1.9253
  1.9267   2.0086   2.0184   2.0704   2.0815   2.0994   2.1395   2.1434
  2.1656   2.1770   2.2032   2.2718   2.2805   2.3015   2.3201   2.3524
  2.3658   2.3850   2.4142   2.4665   2.4909   2.5239   2.5316   2.5976
  2.6520   2.6986   2.7147   2.7181   2.7629   2.7675   2.7836   2.8131
  2.8184   2.9023   2.9761   3.0233   3.0278   3.0501   3.0734   3.1290
  3.1933   3.2299   3.2764   4.0719   4.0908   4.1050   4.2322   4.3096
  4.3364   4.3651   4.4595   4.5125   4.6605   4.7268   4.9446
 --------------------------------------------------------------
 
          Ground-State Mulliken Net Atomic Charges

     Atom                 Charge (a.u.)
  ----------------------------------------
      1 O                    -0.390897
      2 C                     0.033641
      3 C                     0.033640
      4 C                    -0.212318
      5 C                    -0.212318
      6 H                     0.212720
      7 H                     0.212720
      8 H                     0.190377
      9 H                     0.190377
     10 C                     0.626315
     11 N                    -0.707746
     12 C                    -0.215811
     13 O                    -0.480091
     14 C                     0.626316
     15 C                    -0.215811
     16 O                    -0.480091
     17 H                     0.374218
     18 H                     0.207379
     19 H                     0.207379
  ----------------------------------------
  Sum of atomic charges =     0.000000

  Building new vdw surfaces
         Merz-Kollman RESP Net Atomic Charges

     Atom                 Charge (a.u.)
  ----------------------------------------
      1 O                    -0.095915
      2 C                    -0.097259
      3 C                    -0.097259
      4 C                    -0.163505
      5 C                    -0.163505
      6 H                     0.187377
      7 H                     0.187377
      8 H                     0.160631
      9 H                     0.160631
     10 C                     0.661167
     11 N                    -0.672513
     12 C                    -0.249247
     13 O                    -0.484141
     14 C                     0.661167
     15 C                    -0.249247
     16 O                    -0.484141
     17 H                     0.401218
     18 H                     0.168582
     19 H                     0.168582
  ----------------------------------------
  Sum of atomic charges =     0.000000

  Related Dipole Moment =     2.9596 (X  2.8503 Y -0.0007 Z  0.7970)

 -----------------------------------------------------------------
                    Cartesian Multipole Moments
 -----------------------------------------------------------------
    Charge (ESU x 10^10)
                 0.0000
    Dipole Moment (Debye)
         X       2.7931      Y      -0.0007      Z       0.8093
       Tot       2.9080
    Quadrupole Moments (Debye-Ang)
        XX     -61.9393     XY      -0.0036     YY     -75.5646
        XZ       4.9251     YZ      -0.0035     ZZ     -66.2716
    Octopole Moments (Debye-Ang^2)
       XXX     -49.6161    XXY       0.0150    XYY      25.4464
       YYY      -0.0096    XXZ       4.2581    XYZ       0.0121
       YYZ      -1.8158    XZZ     -19.9453    YZZ       0.0037
       ZZZ      -4.2079
    Hexadecapole Moments (Debye-Ang^3)
      XXXX   -1361.7084   XXXY      -0.0003   XXYY    -384.7724
      XYYY       0.0524   YYYY    -753.3013   XXXZ     116.3907
      XXYZ      -0.0459   XYYZ      12.6170   YYYZ      -0.1039
      XXZZ    -276.0923   XYZZ       0.0155   YYZZ    -137.9467
      XZZZ      47.8168   YZZZ      -0.0621   ZZZZ    -225.1146
 -----------------------------------------------------------------
 Calculating analytic gradient of the SCF energy
 Gradient of SCF Energy
            1           2           3           4           5           6
    1  -0.0164532   0.0013635   0.0013633  -0.0032509  -0.0032516  -0.0003328
    2  -0.0000009   0.0012378  -0.0012427   0.0043154  -0.0043137  -0.0003162
    3   0.0159654   0.0066133   0.0066120  -0.0006705  -0.0006727   0.0004963
            7           8           9          10          11          12
    1  -0.0003325  -0.0000949  -0.0000953  -0.0049897   0.0017492   0.0094744
    2   0.0003156  -0.0000145   0.0000142   0.0045292  -0.0000011  -0.0038842
    3   0.0004970   0.0000929   0.0000929  -0.0016390   0.0007787  -0.0121399
           13          14          15          16          17          18
    1   0.0009974  -0.0049915   0.0094756   0.0009985  -0.0004375   0.0044043
    2  -0.0028701  -0.0045254   0.0038877   0.0028686   0.0000003   0.0016788
    3   0.0013122  -0.0016418  -0.0121394   0.0013139  -0.0000980  -0.0023865
           19
    1   0.0044037
    2  -0.0016788
    3  -0.0023867
 Max gradient component =       1.645E-02
 RMS gradient           =       4.889E-03
 Gradient time:  CPU 69.36 s  wall 3.40 s
-Performing force calculation on product structure in state0
 ----------------------------------------------------------------
             Standard Nuclear Orientation (Angstroms)
    I     Atom           X                Y                Z
 ----------------------------------------------------------------
    1      O       1.1832120554     0.0001768352    -1.3291610089
    2      C       1.3990479646     1.0638425475    -0.4068138576
    3      C       1.3987207523    -1.0640627058    -0.4074170424
    4      C       2.7128272025     0.6653292277     0.2482380894
    5      C       2.7126183981    -0.6663209421     0.2478717165
    6      H       1.3322021185     2.0324121637    -0.8988939381
    7      H       1.3315978635    -2.0323430532    -0.9000285866
    8      H       3.4256728047     1.3470276891     0.6939790647
    9      H       3.4252640650    -1.3484880310     0.6932169278
   10      C      -1.0932661668     1.1696364684     0.1029061246
   11      N      -1.7989378236     0.0003219650    -0.1430305627
   12      C       0.2732612646     0.7711998788     0.6422848557
   13      O      -1.5022642839     2.2874093008    -0.0960618642
   14      C      -1.0936382982    -1.1693599532     0.1022258358
   15      C       0.2730154350    -0.7716721577     0.6418419567
   16      O      -1.5029989031    -2.2868874550    -0.0973734251
   17      H      -2.7172658383     0.0005908479    -0.5671683556
   18      H       0.4499350034     1.2520747847     1.6055798767
   19      H       0.4495299480    -1.2531538746     1.6048617621
 ----------------------------------------------------------------
 Nuclear Repulsion Energy =         721.32341683 hartrees
 There are       43 alpha and       43 beta electrons
 Applying Cartesian multipole field
    Component          Value
    ---------          -----
     (2,0,0)        1.00000E-11
     (0,2,0)        2.00000E-11
     (0,0,2)       -3.00000E-10
 Nucleus-field energy     =    -0.0000000141 hartrees
 Requested basis set is 6-31G(d)
 There are 62 shells and 194 basis functions
 A cutoff of  1.0D-12 yielded   1750 shell pairs
 There are     17993 function pairs
 Smallest overlap matrix eigenvalue = 6.89E-04
 Guess from superposition of atomic densities
 Warning:  Energy on first SCF cycle will be non-variational
 SAD guess density has 86.000000 electrons

 -----------------------------------------------------------------------
  General SCF calculation program by
  Eric Jon Sundstrom, Paul Horn, Yuezhi Mao, Dmitri Zuev, Alec White,
  David Stuck, Shaama M.S., Shane Yost, Joonho Lee, David Small,
  Daniel Levine, Susi Lehtola, Hugh Burton, Evgeny Epifanovsky
 -----------------------------------------------------------------------
 Exchange:     0.2220 Hartree-Fock + 1.0000 wB97X-D + LR-HF
 Correlation:  1.0000 wB97X-D
 Using SG-3 standard quadrature grid
 Dispersion:   Grimme D
 using 32 threads for integral computing
 -------------------------------------------------------
 OpenMP Integral computing Module                
 Release: version 1.0, May 2013, Q-Chem Inc. Pittsburgh 
 -------------------------------------------------------
 using 32 threads for integral computing
 -------------------------------------------------------
 OpenMP Integral computing Module                
 Release: version 1.0, May 2013, Q-Chem Inc. Pittsburgh 
 -------------------------------------------------------
 A restricted SCF calculation will be
 performed using DIIS, GDM
 SCF converges when RMS gradient is below 1.0e-08
 ---------------------------------------
  Cycle       Energy         DIIS error
 ---------------------------------------
    1    -592.9018046237      5.94e-02  
    2    -589.0429169029      7.84e-03  Done DIIS. Switching to GDM
 ---------------------------------------
  Cycle       Energy        RMS Gradient
 ---------------------------------------
    1    -589.0429169029      3.23e-01   Descent step
    2    -589.2619322542      4.97e-02   Normal BFGS step
    3    -589.2798346016      2.64e-02   Normal BFGS step
    4    -589.2854986702      7.00e-03   Normal BFGS step
    5    -589.2861278369      2.96e-03   Normal BFGS step
    6    -589.2862501003      8.61e-04   Normal BFGS step
    7    -589.2862683409      3.90e-04   Normal BFGS step
    8    -589.2862701965      1.22e-04   Normal BFGS step
    9    -589.2862704405      3.61e-05   Normal BFGS step
   10    -589.2862704863      1.33e-05   Normal BFGS step
   11    -589.2862704898      5.35e-06   Normal BFGS step
   12    -589.2862704904      1.44e-06   Normal BFGS step
   13    -589.2862704904      6.43e-07   Normal BFGS step
   14    -589.2862704904      2.65e-07   Normal BFGS step
   15    -589.2862704904      1.10e-07   Normal BFGS step
   16    -589.2862704904      3.96e-08   Normal BFGS step
   17    -589.2862704904      2.89e-08   Normal BFGS step
   18    -589.2862704904      9.58e-09  Convergence criterion met
 ---------------------------------------
 SCF time:   CPU 529.63s  wall 18.00s 
 SCF   energy in the final basis set =     -589.2862704904
 Total energy in the final basis set =     -589.2862704904
 
 --------------------------------------------------------------
 
                    Orbital Energies (a.u.)
 --------------------------------------------------------------
 
 Alpha MOs
 -- Occupied --
-19.2918 -19.2660 -19.2660 -14.5080 -10.4272 -10.4272 -10.3753 -10.3753
-10.3341 -10.3339 -10.3196 -10.3187  -1.1883  -1.1715  -1.1561  -1.0568
 -0.9347  -0.8938  -0.8688  -0.7698  -0.7354  -0.7031  -0.6763  -0.6673
 -0.6436  -0.6165  -0.5747  -0.5575  -0.5404  -0.5274  -0.5202  -0.5107
 -0.5022  -0.4913  -0.4792  -0.4595  -0.4481  -0.4325  -0.3772  -0.3708
 -0.3651  -0.3463  -0.3429
 -- Virtual --
  0.0452   0.0721   0.0962   0.1726   0.1813   0.2005   0.2150   0.2188
  0.2272   0.2335   0.2432   0.2477   0.2579   0.2905   0.2908   0.3086
  0.3305   0.3360   0.3689   0.3985   0.4315   0.4382   0.4940   0.5225
  0.5614   0.5811   0.6023   0.6269   0.6346   0.6354   0.6669   0.6724
  0.6823   0.6851   0.7183   0.7253   0.7359   0.7385   0.7495   0.7687
  0.8123   0.8147   0.8325   0.8410   0.8597   0.8915   0.8924   0.9078
  0.9174   0.9446   0.9503   0.9545   0.9726   0.9838   0.9980   0.9990
  1.0316   1.0431   1.0822   1.0971   1.1197   1.1287   1.1469   1.1733
  1.1751   1.2153   1.2571   1.3020   1.3111   1.3624   1.3697   1.4324
  1.4374   1.4663   1.4957   1.5074   1.5689   1.5987   1.6106   1.6357
  1.6676   1.6783   1.7723   1.7801   1.8044   1.8120   1.8457   1.8465
  1.8739   1.8791   1.8983   1.9073   1.9191   1.9638   1.9680   1.9696
  2.0205   2.0273   2.0341   2.0354   2.0567   2.1306   2.1384   2.1443
  2.1615   2.2002   2.2291   2.2682   2.2773   2.2995   2.3702   2.4175
  2.4246   2.4661   2.4675   2.4952   2.5149   2.5432   2.6138   2.6248
  2.6672   2.6733   2.6829   2.7105   2.7357   2.7756   2.7811   2.8137
  2.8606   2.8799   2.8817   2.9523   2.9643   3.0054   3.0751   3.0837
  3.1227   3.2248   3.2780   4.0610   4.0787   4.1893   4.3006   4.3192
  4.4351   4.4353   4.6242   4.6398   4.7207   4.8972   4.9989
 --------------------------------------------------------------
 
          Ground-State Mulliken Net Atomic Charges

     Atom                 Charge (a.u.)
  ----------------------------------------
      1 O                    -0.467659
      2 C                     0.014712
      3 C                     0.014716
      4 C                    -0.134609
      5 C                    -0.134615
      6 H                     0.207763
      7 H                     0.207762
      8 H                     0.188119
      9 H                     0.188120
     10 C                     0.647748
     11 N                    -0.665823
     12 C                    -0.272296
     13 O                    -0.484883
     14 C                     0.647750
     15 C                    -0.272295
     16 O                    -0.484883
     17 H                     0.376036
     18 H                     0.212169
     19 H                     0.212169
  ----------------------------------------
  Sum of atomic charges =     0.000000

  Building new vdw surfaces
         Merz-Kollman RESP Net Atomic Charges

     Atom                 Charge (a.u.)
  ----------------------------------------
      1 O                    -0.313882
      2 C                     0.135872
      3 C                     0.135872
      4 C                    -0.208146
      5 C                    -0.208146
      6 H                     0.137518
      7 H                     0.137518
      8 H                     0.170065
      9 H                     0.170065
     10 C                     0.612187
     11 N                    -0.547683
     12 C                    -0.279608
     13 O                    -0.493186
     14 C                     0.612187
     15 C                    -0.279608
     16 O                    -0.493186
     17 H                     0.374862
     18 H                     0.168649
     19 H                     0.168649
  ----------------------------------------
  Sum of atomic charges =     0.000000

  Related Dipole Moment =     3.3371 (X  2.4969 Y -0.0010 Z  2.2139)

 -----------------------------------------------------------------
                    Cartesian Multipole Moments
 -----------------------------------------------------------------
    Charge (ESU x 10^10)
                 0.0000
    Dipole Moment (Debye)
         X       2.4642      Y      -0.0010      Z       2.1894
       Tot       3.2963
    Quadrupole Moments (Debye-Ang)
        XX     -61.4393     XY      -0.0037     YY     -76.6604
        XZ       4.1686     YZ      -0.0035     ZZ     -66.9572
    Octopole Moments (Debye-Ang^2)
       XXX     -58.6329    XXY       0.0142    XYY      19.6521
       YYY      -0.0101    XXZ       5.8093    XYZ       0.0121
       YYZ       2.1656    XZZ     -24.6857    YZZ       0.0025
       ZZZ      10.9624
    Hexadecapole Moments (Debye-Ang^3)
      XXXX   -1035.2174   XXXY      -0.0023   XXYY    -317.0566
      XYYY       0.0321   YYYY    -763.7854   XXXZ      49.7614
      XXYZ      -0.0363   XYYZ      -4.3059   YYYZ      -0.1033
      XXZZ    -222.3993   XYZZ       0.0099   YYZZ    -132.2303
      XZZZ       6.4201   YZZZ      -0.0596   ZZZZ    -193.4965
 -----------------------------------------------------------------
 Calculating analytic gradient of the SCF energy
 Gradient of SCF Energy
            1           2           3           4           5           6
    1  -0.0001654   0.0000414   0.0000407   0.0000270   0.0000256  -0.0000146
    2  -0.0000036  -0.0001206   0.0001252  -0.0001350   0.0001343  -0.0000102
    3   0.0000212  -0.0000691  -0.0000749   0.0000588   0.0000607  -0.0000323
            7           8           9          10          11          12
    1  -0.0000139  -0.0000015  -0.0000007   0.0000201  -0.0000482   0.0000620
    2   0.0000101   0.0000323  -0.0000323   0.0001094   0.0000004   0.0000119
    3  -0.0000321  -0.0000386  -0.0000385   0.0001071  -0.0000629   0.0000195
           13          14          15          16          17          18
    1   0.0000283   0.0000199   0.0000602   0.0000279  -0.0000355  -0.0000369
    2   0.0000056  -0.0001095  -0.0000133  -0.0000058   0.0000002   0.0000302
    3  -0.0000309   0.0001041   0.0000211  -0.0000296  -0.0000401   0.0000285
           19
    1  -0.0000362
    2  -0.0000294
    3   0.0000280
 Max gradient component =       1.654E-04
 RMS gradient           =       5.904E-05
 Gradient time:  CPU 71.87 s  wall 2.57 s

STARTING FREEZING STRING ITERATION # 1
 The distance between the innermost nodes (Angstroms): 1.478
-Adding two new nodes
 The distance between the previous and current R_nodes (Angstroms): 0.1042
 The distance between the previous and current P_nodes (Angstroms): 0.1039
-Optimizing new reactant side node
 Using BFGS, step: 2 E_tol 0.0417
 max_steps 4, node_spacing 0.0985, sigma 0.7000
 ----------------------------------------------------------------
             Standard Nuclear Orientation (Angstroms)
    I     Atom           X                Y                Z
 ----------------------------------------------------------------
    1      O       1.2572518349    -0.0001453442    -1.1376125757
    2      C       1.8737884025     1.0874915686    -0.6098426159
    3      C       1.8735786628    -1.0881973544    -0.6103724255
    4      C       2.9285845394     0.7122703850     0.1735670550
    5      C       2.9283920391    -0.7134464394     0.1731758484
    6      H       1.4960968748     2.0456253980    -0.9305466228
    7      H       1.4952946037    -2.0457546818    -0.9319766338
    8      H       3.6115679056     1.3711758958     0.6898268409
    9      H       3.6112218741    -1.3727819122     0.6890805860
   10      C      -1.3748773269     1.1561541902     0.2019855984
   11      N      -2.0327324547     0.0003009274    -0.2090410417
   12      C      -0.1679095881     0.6710376855     0.9537710860
   13      O      -1.7168172354     2.2919135735    -0.0131578927
   14      C      -1.3754175999    -1.1561273588     0.2012071146
   15      C      -0.1681771627    -0.6726855007     0.9533148686
   16      O      -1.7178759352    -2.2915323658    -0.0147051918
   17      H      -2.8874218281     0.0006881594    -0.7451877002
   18      H       0.5108243706     1.3492094268     1.4511439007
   19      H       0.5106082967    -1.3509090627     1.4504669343
 ----------------------------------------------------------------
 Nuclear Repulsion Energy =         685.08329411 hartrees
 There are       43 alpha and       43 beta electrons
 Applying Cartesian multipole field
    Component          Value
    ---------          -----
     (2,0,0)        1.00000E-11
     (0,2,0)        2.00000E-11
     (0,0,2)       -3.00000E-10
 Nucleus-field energy     =    -0.0000000161 hartrees
 Requested basis set is 6-31G(d)
 There are 62 shells and 194 basis functions
 A cutoff of  1.0D-12 yielded   1688 shell pairs
 There are     17446 function pairs
 Smallest overlap matrix eigenvalue = 9.12E-04
 Guess from superposition of atomic densities
 Warning:  Energy on first SCF cycle will be non-variational
 SAD guess density has 86.000000 electrons

 -----------------------------------------------------------------------
  General SCF calculation program by
  Eric Jon Sundstrom, Paul Horn, Yuezhi Mao, Dmitri Zuev, Alec White,
  David Stuck, Shaama M.S., Shane Yost, Joonho Lee, David Small,
  Daniel Levine, Susi Lehtola, Hugh Burton, Evgeny Epifanovsky
 -----------------------------------------------------------------------
 Exchange:     0.2220 Hartree-Fock + 1.0000 wB97X-D + LR-HF
 Correlation:  1.0000 wB97X-D
 Using SG-3 standard quadrature grid
 Dispersion:   Grimme D
 using 32 threads for integral computing
 -------------------------------------------------------
 OpenMP Integral computing Module                
 Release: version 1.0, May 2013, Q-Chem Inc. Pittsburgh 
 -------------------------------------------------------
 using 32 threads for integral computing
 -------------------------------------------------------
 OpenMP Integral computing Module                
 Release: version 1.0, May 2013, Q-Chem Inc. Pittsburgh 
 -------------------------------------------------------
 A restricted SCF calculation will be
 performed using DIIS, GDM
 SCF converges when RMS gradient is below 1.0e-08
 ---------------------------------------
  Cycle       Energy         DIIS error
 ---------------------------------------
    1    -592.6392025927      5.99e-02  
    2    -589.0220330379      7.37e-03  Done DIIS. Switching to GDM
 ---------------------------------------
  Cycle       Energy        RMS Gradient
 ---------------------------------------
    1    -589.0220330379      2.50e-01   Descent step
    2    -589.2143638074      7.42e-02   Normal BFGS step
    3    -589.2351788691      2.77e-02   Normal BFGS step
    4    -589.2407796435      6.51e-03   Normal BFGS step
    5    -589.2413711429      2.41e-03   Normal BFGS step
    6    -589.2414601419      1.09e-03   Normal BFGS step
    7    -589.2414762275      6.45e-04   Normal BFGS step
    8    -589.2414783636      3.00e-04   Normal BFGS step
    9    -589.2414792301      7.68e-05   Normal BFGS step
   10    -589.2414793038      3.50e-05   Normal BFGS step
   11    -589.2414793153      1.15e-05   Normal BFGS step
   12    -589.2414793163      4.15e-06   Normal BFGS step
   13    -589.2414793164      1.90e-06   Normal BFGS step
   14    -589.2414793164      7.82e-07   Normal BFGS step
   15    -589.2414793164      2.95e-07   Normal BFGS step
   16    -589.2414793164      1.20e-07   Normal BFGS step
   17    -589.2414793164      7.80e-08   Normal BFGS step
   18    -589.2414793164      1.48e-08   Normal BFGS step
   19    -589.2414793164      5.75e-09  Convergence criterion met
 ---------------------------------------
 SCF time:   CPU 529.47s  wall 16.00s 
 SCF   energy in the final basis set =     -589.2414793164
 Total energy in the final basis set =     -589.2414793164
 
 --------------------------------------------------------------
 
                    Orbital Energies (a.u.)
 --------------------------------------------------------------
 
 Alpha MOs
 -- Occupied --
-19.3518 -19.2684 -19.2683 -14.4945 -10.4260 -10.4260 -10.3640 -10.3640
-10.3255 -10.3246 -10.3166 -10.3161  -1.2307  -1.1740  -1.1563  -1.0566
 -0.9158  -0.9082  -0.8596  -0.7689  -0.7107  -0.7058  -0.6901  -0.6767
 -0.6491  -0.5843  -0.5765  -0.5557  -0.5459  -0.5397  -0.5364  -0.5233
 -0.5087  -0.5049  -0.4975  -0.4825  -0.4703  -0.3791  -0.3744  -0.3685
 -0.3560  -0.3458  -0.3196
 -- Virtual --
 -0.0136   0.0744   0.1237   0.1506   0.1751   0.1771   0.1863   0.2038
  0.2234   0.2254   0.2315   0.2488   0.2644   0.2786   0.2973   0.3010
  0.3187   0.3784   0.3882   0.4241   0.4547   0.4801   0.5075   0.5234
  0.5551   0.5785   0.5829   0.6122   0.6460   0.6466   0.6469   0.6577
  0.6727   0.6818   0.6912   0.6971   0.7253   0.7304   0.7455   0.7613
  0.8036   0.8110   0.8399   0.8564   0.8747   0.8959   0.8997   0.9005
  0.9133   0.9223   0.9539   0.9545   0.9638   0.9734   0.9861   1.0001
  1.0081   1.0452   1.0632   1.0682   1.1143   1.1320   1.1613   1.1627
  1.1771   1.1788   1.2108   1.2715   1.2912   1.3788   1.3823   1.4048
  1.4090   1.4330   1.4514   1.4865   1.4909   1.4998   1.5095   1.5384
  1.5577   1.5585   1.6098   1.6460   1.6526   1.7010   1.7653   1.7800
  1.8278   1.8560   1.8578   1.8796   1.8844   1.8863   1.8996   1.9278
  1.9319   2.0079   2.0155   2.0758   2.0845   2.0969   2.1302   2.1407
  2.1694   2.1735   2.2058   2.2730   2.2788   2.3001   2.3189   2.3423
  2.3534   2.3776   2.4227   2.4728   2.4900   2.5299   2.5366   2.5997
  2.6422   2.7010   2.7186   2.7213   2.7625   2.7696   2.7842   2.8094
  2.8112   2.9034   2.9804   3.0101   3.0246   3.0471   3.0746   3.1265
  3.1924   3.2307   3.2787   4.0736   4.1004   4.1115   4.2307   4.3184
  4.3450   4.3717   4.4651   4.5231   4.6641   4.7357   4.9478
 --------------------------------------------------------------
 
          Ground-State Mulliken Net Atomic Charges

     Atom                 Charge (a.u.)
  ----------------------------------------
      1 O                    -0.388993
      2 C                     0.030099
      3 C                     0.030099
      4 C                    -0.206586
      5 C                    -0.206640
      6 H                     0.214720
      7 H                     0.214729
      8 H                     0.191666
      9 H                     0.191644
     10 C                     0.629889
     11 N                    -0.708297
     12 C                    -0.225015
     13 O                    -0.480975
     14 C                     0.629920
     15 C                    -0.225084
     16 O                    -0.480951
     17 H                     0.373245
     18 H                     0.208243
     19 H                     0.208287
  ----------------------------------------
  Sum of atomic charges =     0.000000

  Building new vdw surfaces
         Merz-Kollman RESP Net Atomic Charges

     Atom                 Charge (a.u.)
  ----------------------------------------
      1 O                    -0.087542
      2 C                    -0.108023
      3 C                    -0.108023
      4 C                    -0.157125
      5 C                    -0.157125
      6 H                     0.192580
      7 H                     0.192580
      8 H                     0.161348
      9 H                     0.161348
     10 C                     0.662843
     11 N                    -0.663372
     12 C                    -0.265425
     13 O                    -0.485472
     14 C                     0.662843
     15 C                    -0.265425
     16 O                    -0.485472
     17 H                     0.396540
     18 H                     0.176460
     19 H                     0.176460
  ----------------------------------------
  Sum of atomic charges =     0.000000

  Related Dipole Moment =     3.1056 (X  2.9957 Y  0.0002 Z  0.8190)

 -----------------------------------------------------------------
                    Cartesian Multipole Moments
 -----------------------------------------------------------------
    Charge (ESU x 10^10)
                 0.0000
    Dipole Moment (Debye)
         X       2.9419      Y      -0.0007      Z       0.8294
       Tot       3.0565
    Quadrupole Moments (Debye-Ang)
        XX     -61.6619     XY      -0.0050     YY     -75.5874
        XZ       4.9015     YZ      -0.0046     ZZ     -66.2816
    Octopole Moments (Debye-Ang^2)
       XXX     -48.5572    XXY       0.0373    XYY      25.4103
       YYY       0.0327    XXZ       4.5799    XYZ       0.0135
       YYZ      -1.4961    XZZ     -19.9507    YZZ       0.0150
       ZZZ      -3.2267
    Hexadecapole Moments (Debye-Ang^3)
      XXXX   -1332.3291   XXXY      -0.0086   XXYY    -379.5986
      XYYY       0.0329   YYYY    -754.4789   XXXZ     111.3685
      XXYZ      -0.0503   XYYZ      11.1958   YYYZ      -0.1088
      XXZZ    -271.6363   XYZZ       0.0115   YYZZ    -137.1932
      XZZZ      44.0700   YZZZ      -0.0616   ZZZZ    -221.8199
 -----------------------------------------------------------------
 Calculating analytic gradient of the SCF energy
 Gradient of SCF Energy
            1           2           3           4           5           6
    1  -0.0182599  -0.0068817  -0.0068226   0.0039553   0.0038894   0.0002655
    2  -0.0000367   0.0038118  -0.0038976   0.0006187  -0.0005569  -0.0001692
    3   0.0078129   0.0097117   0.0097723   0.0029263   0.0028792   0.0003016
            7           8           9          10          11          12
    1   0.0002235   0.0003609   0.0003525  -0.0072978   0.0043057   0.0108372
    2   0.0002238  -0.0000588   0.0000603   0.0055894  -0.0000273   0.0072555
    3   0.0002667  -0.0003056  -0.0003107  -0.0012957   0.0024020  -0.0161818
           13          14          15          16          17          18
    1   0.0018760  -0.0073150   0.0108264   0.0019500  -0.0004999   0.0040995
    2  -0.0033905  -0.0054877  -0.0075054   0.0034869   0.0000089   0.0012711
    3   0.0013348  -0.0013043  -0.0161900   0.0013803   0.0001503  -0.0016858
           19
    1   0.0041350
    2  -0.0011963
    3  -0.0016642
 Max gradient component =       1.826E-02
 RMS gradient           =       5.770E-03
 Gradient time:  CPU 70.12 s  wall 8.94 s
 ----------------------------------------------------------------
             Standard Nuclear Orientation (Angstroms)
    I     Atom           X                Y                Z
 ----------------------------------------------------------------
    1      O       1.2807344000    -0.0001079573    -1.1548350290
    2      C       1.8735829035     1.0818303629    -0.6189721835
    3      C       1.8733251369    -1.0824148757    -0.6195395196
    4      C       2.9183631578     0.7102966051     0.1712587705
    5      C       2.9182862413    -0.7114762803     0.1709631595
    6      H       1.4916272658     2.0466328409    -0.9305784478
    7      H       1.4908851087    -2.0468169987    -0.9319702194
    8      H       3.6072274926     1.3708859460     0.6905272609
    9      H       3.6069361679    -1.3723628023     0.6898397760
   10      C      -1.3586193824     1.1487407011     0.2013326790
   11      N      -2.0342554590     0.0003524065    -0.2113466674
   12      C      -0.1746924504     0.6622732785     0.9695647729
   13      O      -1.7149461322     2.2973040321    -0.0170075796
   14      C      -1.3591813075    -1.1488670369     0.2005643611
   15      C      -0.1749390376    -0.6636817478     0.9691183119
   16      O      -1.7161846989    -2.2970716773    -0.0186199252
   17      H      -2.8834598516     0.0007013972    -0.7419124260
   18      H       0.5057346247     1.3474270243     1.4587608947
   19      H       0.5055290710    -1.3492718272     1.4581153852
 ----------------------------------------------------------------
 Nuclear Repulsion Energy =         685.07569198 hartrees
 There are       43 alpha and       43 beta electrons
 Applying Cartesian multipole field
    Component          Value
    ---------          -----
     (2,0,0)        1.00000E-11
     (0,2,0)        2.00000E-11
     (0,0,2)       -3.00000E-10
 Nucleus-field energy     =    -0.0000000171 hartrees
 Requested basis set is 6-31G(d)
 There are 62 shells and 194 basis functions
 A cutoff of  1.0D-12 yielded   1689 shell pairs
 There are     17447 function pairs
 Smallest overlap matrix eigenvalue = 8.65E-04
 Guess from superposition of atomic densities
 Warning:  Energy on first SCF cycle will be non-variational
 SAD guess density has 86.000000 electrons

 -----------------------------------------------------------------------
  General SCF calculation program by
  Eric Jon Sundstrom, Paul Horn, Yuezhi Mao, Dmitri Zuev, Alec White,
  David Stuck, Shaama M.S., Shane Yost, Joonho Lee, David Small,
  Daniel Levine, Susi Lehtola, Hugh Burton, Evgeny Epifanovsky
 -----------------------------------------------------------------------
 Exchange:     0.2220 Hartree-Fock + 1.0000 wB97X-D + LR-HF
 Correlation:  1.0000 wB97X-D
 Using SG-3 standard quadrature grid
 Dispersion:   Grimme D
 using 32 threads for integral computing
 -------------------------------------------------------
 OpenMP Integral computing Module                
 Release: version 1.0, May 2013, Q-Chem Inc. Pittsburgh 
 -------------------------------------------------------
 using 32 threads for integral computing
 -------------------------------------------------------
 OpenMP Integral computing Module                
 Release: version 1.0, May 2013, Q-Chem Inc. Pittsburgh 
 -------------------------------------------------------
 A restricted SCF calculation will be
 performed using DIIS, GDM
 SCF converges when RMS gradient is below 1.0e-08
 ---------------------------------------
  Cycle       Energy         DIIS error
 ---------------------------------------
    1    -592.6663570628      6.00e-02  
    2    -589.0159803601      7.47e-03  Done DIIS. Switching to GDM
 ---------------------------------------
  Cycle       Energy        RMS Gradient
 ---------------------------------------
    1    -589.0159803601      2.59e-01   Descent step
    2    -589.2153033720      7.70e-02   Normal BFGS step
    3    -589.2364090458      3.43e-02   Normal BFGS step
    4    -589.2424069000      6.80e-03   Normal BFGS step
    5    -589.2429742834      2.62e-03   Normal BFGS step
    6    -589.2430664448      1.16e-03   Normal BFGS step
    7    -589.2430805233      5.56e-04   Normal BFGS step
    8    -589.2430822510      2.81e-04   Normal BFGS step
    9    -589.2430829047      7.43e-05   Normal BFGS step
   10    -589.2430829815      3.08e-05   Normal BFGS step
   11    -589.2430829921      1.07e-05   Normal BFGS step
   12    -589.2430829931      4.52e-06   Normal BFGS step
   13    -589.2430829932      2.17e-06   Normal BFGS step
   14    -589.2430829933      1.01e-06   Normal BFGS step
   15    -589.2430829933      3.93e-07   Normal BFGS step
   16    -589.2430829933      8.37e-08   Normal BFGS step
   17    -589.2430829933      7.93e-08   Normal BFGS step
   18    -589.2430829933      1.74e-08   Normal BFGS step
   19    -589.2430829933      6.95e-09  Convergence criterion met
 ---------------------------------------
 SCF time:   CPU 550.33s  wall 29.00s 
 SCF   energy in the final basis set =     -589.2430829933
 Total energy in the final basis set =     -589.2430829933
 
 --------------------------------------------------------------
 
                    Orbital Energies (a.u.)
 --------------------------------------------------------------
 
 Alpha MOs
 -- Occupied --
-19.3542 -19.2686 -19.2685 -14.4960 -10.4279 -10.4279 -10.3635 -10.3635
-10.3276 -10.3267 -10.3155 -10.3150  -1.2397  -1.1678  -1.1470  -1.0559
 -0.9183  -0.9149  -0.8630  -0.7714  -0.7158  -0.7077  -0.6892  -0.6760
 -0.6508  -0.5875  -0.5806  -0.5587  -0.5469  -0.5390  -0.5378  -0.5230
 -0.5075  -0.5032  -0.4976  -0.4772  -0.4698  -0.3792  -0.3745  -0.3674
 -0.3636  -0.3457  -0.3206
 -- Virtual --
 -0.0172   0.0766   0.1251   0.1440   0.1740   0.1771   0.1849   0.2025
  0.2221   0.2239   0.2316   0.2481   0.2655   0.2817   0.2971   0.3003
  0.3201   0.3801   0.3866   0.4180   0.4533   0.4839   0.5130   0.5240
  0.5513   0.5766   0.5812   0.6130   0.6437   0.6471   0.6478   0.6577
  0.6736   0.6812   0.6938   0.6966   0.7152   0.7277   0.7427   0.7473
  0.8029   0.8121   0.8401   0.8592   0.8753   0.8932   0.8983   0.8988
  0.9117   0.9195   0.9531   0.9541   0.9651   0.9748   0.9843   0.9980
  1.0109   1.0491   1.0627   1.0691   1.1157   1.1320   1.1597   1.1609
  1.1761   1.1773   1.2141   1.2661   1.2875   1.3767   1.3821   1.4040
  1.4107   1.4289   1.4483   1.4805   1.4937   1.4970   1.5058   1.5385
  1.5550   1.5592   1.6014   1.6394   1.6462   1.6960   1.7510   1.7879
  1.8266   1.8532   1.8600   1.8756   1.8851   1.8891   1.9008   1.9347
  1.9350   2.0094   2.0199   2.0697   2.0771   2.1012   2.1326   2.1388
  2.1697   2.1720   2.2106   2.2759   2.2817   2.3033   2.3238   2.3500
  2.3588   2.3828   2.4212   2.4761   2.4893   2.5333   2.5388   2.6060
  2.6539   2.6905   2.7122   2.7142   2.7509   2.7742   2.7751   2.8128
  2.8182   2.9064   2.9515   3.0227   3.0303   3.0513   3.0660   3.1296
  3.1904   3.2264   3.2655   4.0681   4.1022   4.1117   4.2307   4.2994
  4.3419   4.3726   4.4661   4.5151   4.6632   4.7225   4.9497
 --------------------------------------------------------------
 
          Ground-State Mulliken Net Atomic Charges

     Atom                 Charge (a.u.)
  ----------------------------------------
      1 O                    -0.380525
      2 C                     0.028459
      3 C                     0.028454
      4 C                    -0.209082
      5 C                    -0.209130
      6 H                     0.214780
      7 H                     0.214773
      8 H                     0.190913
      9 H                     0.190913
     10 C                     0.625661
     11 N                    -0.700668
     12 C                    -0.216613
     13 O                    -0.491847
     14 C                     0.625630
     15 C                    -0.216696
     16 O                    -0.491803
     17 H                     0.375400
     18 H                     0.210676
     19 H                     0.210706
  ----------------------------------------
  Sum of atomic charges =     0.000000

  Building new vdw surfaces
         Merz-Kollman RESP Net Atomic Charges

     Atom                 Charge (a.u.)
  ----------------------------------------
      1 O                    -0.093517
      2 C                    -0.096078
      3 C                    -0.096078
      4 C                    -0.160867
      5 C                    -0.160867
      6 H                     0.186494
      7 H                     0.186494
      8 H                     0.159763
      9 H                     0.159763
     10 C                     0.637423
     11 N                    -0.645326
     12 C                    -0.241051
     13 O                    -0.483304
     14 C                     0.637423
     15 C                    -0.241051
     16 O                    -0.483304
     17 H                     0.398635
     18 H                     0.167723
     19 H                     0.167723
  ----------------------------------------
  Sum of atomic charges =     0.000000

  Related Dipole Moment =     3.1632 (X  3.0413 Y -0.0006 Z  0.8696)

 -----------------------------------------------------------------
                    Cartesian Multipole Moments
 -----------------------------------------------------------------
    Charge (ESU x 10^10)
                 0.0000
    Dipole Moment (Debye)
         X       2.9846      Y      -0.0012      Z       0.8773
       Tot       3.1108
    Quadrupole Moments (Debye-Ang)
        XX     -62.0180     XY      -0.0050     YY     -76.0060
        XZ       4.8505     YZ      -0.0051     ZZ     -66.1770
    Octopole Moments (Debye-Ang^2)
       XXX     -49.0161    XXY       0.0357    XYY      25.7685
       YYY       0.0305    XXZ       4.4290    XYZ       0.0133
       YYZ      -1.2388    XZZ     -19.9116    YZZ       0.0154
       ZZZ      -2.7496
    Hexadecapole Moments (Debye-Ang^3)
      XXXX   -1329.6500   XXXY      -0.0362   XXYY    -380.2540
      XYYY       0.0134   YYYY    -756.7393   XXXZ     112.2199
      XXYZ      -0.0544   XYYZ      11.6883   YYYZ      -0.1134
      XXZZ    -271.6126   XYZZ       0.0060   YYZZ    -137.9777
      XZZZ      45.3049   YZZZ      -0.0632   ZZZZ    -225.1525
 -----------------------------------------------------------------
 Calculating analytic gradient of the SCF energy
 Gradient of SCF Energy
            1           2           3           4           5           6
    1  -0.0019394  -0.0077782  -0.0078404  -0.0042175  -0.0040437  -0.0008602
    2  -0.0000454  -0.0083668   0.0083690  -0.0036928   0.0036860   0.0031776
    3   0.0116989   0.0097935   0.0097649  -0.0028817  -0.0027440   0.0003449
            7           8           9          10          11          12
    1  -0.0009069   0.0036416   0.0035784   0.0132569  -0.0127060   0.0051505
    2  -0.0031874   0.0023706  -0.0023154  -0.0194577   0.0001038  -0.0144645
    3   0.0003029   0.0013859   0.0013386   0.0060367  -0.0053820  -0.0144182
           13          14          15          16          17          18
    1  -0.0090509   0.0132964   0.0050840  -0.0090602   0.0049114   0.0046813
    2   0.0202354   0.0194562   0.0144771  -0.0202773  -0.0000052   0.0023843
    3  -0.0037767   0.0060762  -0.0144745  -0.0037922   0.0040468  -0.0017033
           19
    1   0.0048029
    2  -0.0024476
    3  -0.0016167
 Max gradient component =       2.028E-02
 RMS gradient           =       8.493E-03
 Gradient time:  CPU 69.05 s  wall 2.43 s
 FSM gradient convergence criteria satisfied
done with opt_step_by_gradient, Reactant, iter1
-Optimizing new product side node
 Using BFGS, step: 2 E_tol 0.0416969
 max_steps 4, node_spacing 0.0985260, sigma 0.7000000
 ----------------------------------------------------------------
             Standard Nuclear Orientation (Angstroms)
    I     Atom           X                Y                Z
 ----------------------------------------------------------------
    1      O       1.1886665460    -0.0000628218    -1.3214465305
    2      C       1.4361209613     1.0663764988    -0.4210542057
    3      C       1.4358584107    -1.0670347814    -0.4215461163
    4      C       2.7298903962     0.6687428913     0.2427688779
    5      C       2.7296816043    -0.6698661051     0.2423951658
    6      H       1.3447773623     2.0363581027    -0.9030924797
    7      H       1.3441440493    -2.0364201904    -0.9045809853
    8      H       3.4402806136     1.3491146119     0.6939176242
    9      H       3.4399272298    -1.3506269081     0.6931749367
   10      C      -1.1159765917     1.1694171265     0.1102238152
   11      N      -1.8174911279     0.0002641656    -0.1482322339
   12      C       0.2388111961     0.7621308547     0.6598421153
   13      O      -1.5188916305     2.2888447093    -0.0898372282
   14      C      -1.1163949396    -1.1692891102     0.1095383094
   15      C       0.2385793349    -0.7631313048     0.6593733779
   16      O      -1.5198398675    -2.2883464808    -0.0912664202
   17      H      -2.7312985286     0.0006068534    -0.5813502877
   18      H       0.4564951489     1.2629726603     1.6017910719
   19      H       0.4561013720    -1.2644029984     1.6011153232
 ----------------------------------------------------------------
 Nuclear Repulsion Energy =         717.83913310 hartrees
 There are       43 alpha and       43 beta electrons
 Applying Cartesian multipole field
    Component          Value
    ---------          -----
     (2,0,0)        1.00000E-11
     (0,2,0)        2.00000E-11
     (0,0,2)       -3.00000E-10
 Nucleus-field energy     =    -0.0000000142 hartrees
 Requested basis set is 6-31G(d)
 There are 62 shells and 194 basis functions
 A cutoff of  1.0D-12 yielded   1750 shell pairs
 There are     17993 function pairs
 Smallest overlap matrix eigenvalue = 7.14E-04
 Guess from superposition of atomic densities
 Warning:  Energy on first SCF cycle will be non-variational
 SAD guess density has 86.000000 electrons

 -----------------------------------------------------------------------
  General SCF calculation program by
  Eric Jon Sundstrom, Paul Horn, Yuezhi Mao, Dmitri Zuev, Alec White,
  David Stuck, Shaama M.S., Shane Yost, Joonho Lee, David Small,
  Daniel Levine, Susi Lehtola, Hugh Burton, Evgeny Epifanovsky
 -----------------------------------------------------------------------
 Exchange:     0.2220 Hartree-Fock + 1.0000 wB97X-D + LR-HF
 Correlation:  1.0000 wB97X-D
 Using SG-3 standard quadrature grid
 Dispersion:   Grimme D
 using 32 threads for integral computing
 -------------------------------------------------------
 OpenMP Integral computing Module                
 Release: version 1.0, May 2013, Q-Chem Inc. Pittsburgh 
 -------------------------------------------------------
 using 32 threads for integral computing
 -------------------------------------------------------
 OpenMP Integral computing Module                
 Release: version 1.0, May 2013, Q-Chem Inc. Pittsburgh 
 -------------------------------------------------------
 A restricted SCF calculation will be
 performed using DIIS, GDM
 SCF converges when RMS gradient is below 1.0e-08
 ---------------------------------------
  Cycle       Energy         DIIS error
 ---------------------------------------
    1    -592.7982180094      5.90e-02  
    2    -589.0406795780      7.81e-03  Done DIIS. Switching to GDM
 ---------------------------------------
  Cycle       Energy        RMS Gradient
 ---------------------------------------
    1    -589.0406795780      3.14e-01   Descent step
    2    -589.2577741373      4.19e-02   Normal BFGS step
    3    -589.2755711009      2.55e-02   Normal BFGS step
    4    -589.2813793533      6.78e-03   Normal BFGS step
    5    -589.2820132850      2.50e-03   Normal BFGS step
    6    -589.2821291196      9.20e-04   Normal BFGS step
    7    -589.2821479036      3.37e-04   Normal BFGS step
    8    -589.2821497308      1.05e-04   Normal BFGS step
    9    -589.2821499728      3.53e-05   Normal BFGS step
   10    -589.2821500131      1.41e-05   Normal BFGS step
   11    -589.2821500170      6.64e-06   Normal BFGS step
   12    -589.2821500177      1.61e-06   Normal BFGS step
   13    -589.2821500177      9.20e-07   Normal BFGS step
   14    -589.2821500177      3.01e-07   Normal BFGS step
   15    -589.2821500177      1.37e-07   Normal BFGS step
   16    -589.2821500177      5.07e-08   Normal BFGS step
   17    -589.2821500177      1.30e-08   Normal BFGS step
   18    -589.2821500177      6.11e-09  Convergence criterion met
 ---------------------------------------
 SCF time:   CPU 521.57s  wall 16.00s 
 SCF   energy in the final basis set =     -589.2821500177
 Total energy in the final basis set =     -589.2821500177
 
 --------------------------------------------------------------
 
                    Orbital Energies (a.u.)
 --------------------------------------------------------------
 
 Alpha MOs
 -- Occupied --
-19.2941 -19.2644 -19.2644 -14.5065 -10.4261 -10.4261 -10.3793 -10.3792
-10.3331 -10.3329 -10.3229 -10.3220  -1.1888  -1.1713  -1.1547  -1.0562
 -0.9298  -0.8952  -0.8618  -0.7709  -0.7308  -0.7013  -0.6766  -0.6710
 -0.6422  -0.6124  -0.5746  -0.5538  -0.5401  -0.5257  -0.5201  -0.5089
 -0.5040  -0.4886  -0.4844  -0.4646  -0.4499  -0.4218  -0.3766  -0.3694
 -0.3613  -0.3471  -0.3422
 -- Virtual --
  0.0403   0.0720   0.0929   0.1741   0.1812   0.2051   0.2147   0.2230
  0.2259   0.2326   0.2445   0.2479   0.2488   0.2897   0.2930   0.3113
  0.3183   0.3271   0.3760   0.3931   0.4322   0.4400   0.4941   0.5209
  0.5636   0.5788   0.6003   0.6156   0.6336   0.6361   0.6595   0.6667
  0.6794   0.6816   0.7161   0.7209   0.7361   0.7402   0.7445   0.7700
  0.8146   0.8180   0.8301   0.8403   0.8579   0.8937   0.8959   0.9086
  0.9191   0.9430   0.9472   0.9574   0.9766   0.9841   0.9936   0.9993
  1.0232   1.0452   1.0786   1.0955   1.1165   1.1299   1.1484   1.1762
  1.1782   1.2107   1.2520   1.2998   1.3074   1.3680   1.3735   1.4342
  1.4357   1.4632   1.5020   1.5034   1.5607   1.5925   1.6011   1.6349
  1.6581   1.6712   1.7556   1.7731   1.7978   1.8025   1.8434   1.8446
  1.8666   1.8762   1.8832   1.9050   1.9197   1.9484   1.9635   1.9686
  2.0054   2.0086   2.0227   2.0343   2.0600   2.1301   2.1303   2.1483
  2.1562   2.1950   2.2359   2.2643   2.2662   2.3014   2.3770   2.4121
  2.4206   2.4562   2.4699   2.4854   2.4992   2.5386   2.6049   2.6128
  2.6667   2.6782   2.6875   2.7124   2.7276   2.7702   2.7737   2.8047
  2.8413   2.8694   2.8947   2.9331   2.9676   3.0010   3.0762   3.0852
  3.1258   3.2257   3.2801   4.0628   4.0780   4.1787   4.2973   4.2996
  4.4219   4.4222   4.6168   4.6230   4.7214   4.8751   4.9893
 --------------------------------------------------------------
 
          Ground-State Mulliken Net Atomic Charges

     Atom                 Charge (a.u.)
  ----------------------------------------
      1 O                    -0.459975
      2 C                     0.016942
      3 C                     0.016933
      4 C                    -0.133316
      5 C                    -0.133367
      6 H                     0.207326
      7 H                     0.207342
      8 H                     0.190549
      9 H                     0.190525
     10 C                     0.652264
     11 N                    -0.670639
     12 C                    -0.279213
     13 O                    -0.485913
     14 C                     0.652255
     15 C                    -0.279129
     16 O                    -0.485883
     17 H                     0.375413
     18 H                     0.208933
     19 H                     0.208952
  ----------------------------------------
  Sum of atomic charges =     0.000000

  Building new vdw surfaces
         Merz-Kollman RESP Net Atomic Charges

     Atom                 Charge (a.u.)
  ----------------------------------------
      1 O                    -0.309198
      2 C                     0.133343
      3 C                     0.133343
      4 C                    -0.205521
      5 C                    -0.205521
      6 H                     0.138140
      7 H                     0.138140
      8 H                     0.171638
      9 H                     0.171638
     10 C                     0.605803
     11 N                    -0.538673
     12 C                    -0.277236
     13 O                    -0.492437
     14 C                     0.605803
     15 C                    -0.277236
     16 O                    -0.492437
     17 H                     0.372069
     18 H                     0.164171
     19 H                     0.164171
  ----------------------------------------
  Sum of atomic charges =     0.000000

  Related Dipole Moment =     3.4319 (X  2.7378 Y -0.0007 Z  2.0694)

 -----------------------------------------------------------------
                    Cartesian Multipole Moments
 -----------------------------------------------------------------
    Charge (ESU x 10^10)
                 0.0000
    Dipole Moment (Debye)
         X       2.7049      Y      -0.0013      Z       2.0500
       Tot       3.3940
    Quadrupole Moments (Debye-Ang)
        XX     -60.9219     XY      -0.0038     YY     -76.6737
        XZ       4.2289     YZ      -0.0040     ZZ     -66.9938
    Octopole Moments (Debye-Ang^2)
       XXX     -56.0700    XXY       0.0283    XYY      20.6995
       YYY       0.0129    XXZ       5.7905    XYZ       0.0139
       YYZ       1.8582    XZZ     -24.2483    YZZ       0.0093
       ZZZ      10.0974
    Hexadecapole Moments (Debye-Ang^3)
      XXXX   -1050.7823   XXXY       0.0114   XXYY    -320.7735
      XYYY       0.0386   YYYY    -764.3882   XXXZ      53.7397
      XXYZ      -0.0390   XYYZ      -3.3209   YYYZ      -0.1078
      XXZZ    -225.3896   XYZZ       0.0130   YYZZ    -132.5510
      XZZZ       8.8639   YZZZ      -0.0649   ZZZZ    -195.3843
 -----------------------------------------------------------------
 Calculating analytic gradient of the SCF energy
 Gradient of SCF Energy
            1           2           3           4           5           6
    1  -0.0070687   0.0235442   0.0235657  -0.0002607  -0.0003237  -0.0011398
    2  -0.0000327   0.0055589  -0.0056450   0.0058127  -0.0057548  -0.0002732
    3   0.0052219  -0.0101821  -0.0101081  -0.0007263  -0.0007704   0.0009384
            7           8           9          10          11          12
    1  -0.0011669   0.0000205   0.0000156  -0.0032549   0.0014131  -0.0203619
    2   0.0003366   0.0001631  -0.0001570  -0.0002136  -0.0000351  -0.0065250
    3   0.0009024  -0.0002560  -0.0002596   0.0004566   0.0006087   0.0089397
           13          14          15          16          17          18
    1   0.0012010  -0.0032393  -0.0203511   0.0012265   0.0000696   0.0030491
    2  -0.0006718   0.0002256   0.0064219   0.0007559   0.0000112   0.0006468
    3   0.0001329   0.0004780   0.0089153   0.0001426   0.0001118  -0.0022729
           19
    1   0.0030618
    2  -0.0006246
    3  -0.0022732
 Max gradient component =       2.357E-02
 RMS gradient           =       6.829E-03
 Gradient time:  CPU 72.09 s  wall 2.55 s
 ----------------------------------------------------------------
             Standard Nuclear Orientation (Angstroms)
    I     Atom           X                Y                Z
 ----------------------------------------------------------------
    1      O       1.2055947320    -0.0000702000    -1.3253788697
    2      C       1.4180919273     1.0582151973    -0.4117576681
    3      C       1.4178673101    -1.0587771826    -0.4122811816
    4      C       2.7420965345     0.6604696313     0.2407392066
    5      C       2.7420367044    -0.6615787530     0.2404713147
    6      H       1.3554342031     2.0396980990    -0.9074784710
    7      H       1.3548896185    -2.0398368686    -0.9090424085
    8      H       3.4502163793     1.3503895827     0.6947649185
    9      H       3.4499618960    -1.3517030939     0.6940964593
   10      C      -1.1258238993     1.1698205984     0.1144602910
   11      N      -1.8331033962     0.0003336619    -0.1529414264
   12      C       0.2527010429     0.7682992051     0.6559611004
   13      O      -1.5326266998     2.2912954982    -0.0857787075
   14      C      -1.1262895576    -1.1697184210     0.1137670827
   15      C       0.2524745963    -0.7692304819     0.6555468574
   16      O      -1.5337104531    -2.2909406697    -0.0872373437
   17      H      -2.7412771663     0.0006210205    -0.5914322216
   18      H       0.4555836258     1.2692589935     1.6032836610
   19      H       0.4552087131    -1.2707183804     1.6026824912
 ----------------------------------------------------------------
 Nuclear Repulsion Energy =         716.47695675 hartrees
 There are       43 alpha and       43 beta electrons
 Applying Cartesian multipole field
    Component          Value
    ---------          -----
     (2,0,0)        1.00000E-11
     (0,2,0)        2.00000E-11
     (0,0,2)       -3.00000E-10
 Nucleus-field energy     =    -0.0000000140 hartrees
 Requested basis set is 6-31G(d)
 There are 62 shells and 194 basis functions
 A cutoff of  1.0D-12 yielded   1748 shell pairs
 There are     17981 function pairs
 Smallest overlap matrix eigenvalue = 7.27E-04
 Guess from superposition of atomic densities
 Warning:  Energy on first SCF cycle will be non-variational
 SAD guess density has 86.000000 electrons

 -----------------------------------------------------------------------
  General SCF calculation program by
  Eric Jon Sundstrom, Paul Horn, Yuezhi Mao, Dmitri Zuev, Alec White,
  David Stuck, Shaama M.S., Shane Yost, Joonho Lee, David Small,
  Daniel Levine, Susi Lehtola, Hugh Burton, Evgeny Epifanovsky
 -----------------------------------------------------------------------
 Exchange:     0.2220 Hartree-Fock + 1.0000 wB97X-D + LR-HF
 Correlation:  1.0000 wB97X-D
 Using SG-3 standard quadrature grid
 Dispersion:   Grimme D
 using 32 threads for integral computing
 -------------------------------------------------------
 OpenMP Integral computing Module                
 Release: version 1.0, May 2013, Q-Chem Inc. Pittsburgh 
 -------------------------------------------------------
 using 32 threads for integral computing
 -------------------------------------------------------
 OpenMP Integral computing Module                
 Release: version 1.0, May 2013, Q-Chem Inc. Pittsburgh 
 -------------------------------------------------------
 A restricted SCF calculation will be
 performed using DIIS, GDM
 SCF converges when RMS gradient is below 1.0e-08
 ---------------------------------------
  Cycle       Energy         DIIS error
 ---------------------------------------
    1    -592.7460397164      5.87e-02  
    2    -589.0369085572      7.89e-03  Done DIIS. Switching to GDM
 ---------------------------------------
  Cycle       Energy        RMS Gradient
 ---------------------------------------
    1    -589.0369085572      3.25e-01   Descent step
    2    -589.2594539221      4.76e-02   Normal BFGS step
    3    -589.2770968396      2.75e-02   Normal BFGS step
    4    -589.2830156889      6.85e-03   Normal BFGS step
    5    -589.2836279672      2.95e-03   Normal BFGS step
    6    -589.2837504052      8.71e-04   Normal BFGS step
    7    -589.2837676562      3.48e-04   Normal BFGS step
    8    -589.2837694435      1.14e-04   Normal BFGS step
    9    -589.2837696619      3.64e-05   Normal BFGS step
   10    -589.2837697058      1.28e-05   Normal BFGS step
   11    -589.2837697092      5.73e-06   Normal BFGS step
   12    -589.2837697098      1.48e-06   Normal BFGS step
   13    -589.2837697098      7.81e-07   Normal BFGS step
   14    -589.2837697098      2.91e-07   Normal BFGS step
   15    -589.2837697098      1.48e-07   Normal BFGS step
   16    -589.2837697098      5.55e-08   Normal BFGS step
   17    -589.2837697098      2.03e-08   Normal BFGS step
   18    -589.2837697098      1.25e-08   Normal BFGS step
   19    -589.2837697098      6.27e-09  Convergence criterion met
 ---------------------------------------
 SCF time:   CPU 547.50s  wall 18.00s 
 SCF   energy in the final basis set =     -589.2837697098
 Total energy in the final basis set =     -589.2837697098
 
 --------------------------------------------------------------
 
                    Orbital Energies (a.u.)
 --------------------------------------------------------------
 
 Alpha MOs
 -- Occupied --
-19.2937 -19.2662 -19.2662 -14.5086 -10.4289 -10.4289 -10.3792 -10.3792
-10.3366 -10.3364 -10.3205 -10.3196  -1.1906  -1.1708  -1.1541  -1.0546
 -0.9309  -0.8946  -0.8612  -0.7674  -0.7339  -0.7012  -0.6740  -0.6665
 -0.6410  -0.6139  -0.5745  -0.5556  -0.5413  -0.5264  -0.5192  -0.5085
 -0.5044  -0.4873  -0.4829  -0.4568  -0.4485  -0.4278  -0.3764  -0.3702
 -0.3645  -0.3495  -0.3425
 -- Virtual --
  0.0430   0.0734   0.0921   0.1717   0.1805   0.2018   0.2170   0.2194
  0.2224   0.2316   0.2425   0.2457   0.2527   0.2824   0.2905   0.3046
  0.3260   0.3287   0.3656   0.3924   0.4272   0.4369   0.4941   0.5128
  0.5587   0.5779   0.6031   0.6179   0.6295   0.6345   0.6625   0.6683
  0.6794   0.6807   0.7174   0.7234   0.7317   0.7366   0.7452   0.7665
  0.8123   0.8157   0.8279   0.8407   0.8607   0.8898   0.8905   0.9062
  0.9150   0.9432   0.9465   0.9559   0.9733   0.9840   0.9949   0.9970
  1.0265   1.0477   1.0792   1.0928   1.1134   1.1285   1.1465   1.1743
  1.1748   1.2116   1.2487   1.2962   1.3034   1.3669   1.3717   1.4258
  1.4323   1.4616   1.4981   1.5044   1.5653   1.5969   1.5986   1.6270
  1.6580   1.6730   1.7595   1.7689   1.7906   1.7987   1.8351   1.8401
  1.8725   1.8738   1.8835   1.9015   1.9133   1.9462   1.9609   1.9611
  2.0058   2.0092   2.0245   2.0278   2.0527   2.1191   2.1356   2.1399
  2.1602   2.1967   2.2262   2.2587   2.2626   2.2968   2.3715   2.4038
  2.4116   2.4665   2.4697   2.4964   2.5007   2.5341   2.6043   2.6184
  2.6665   2.6700   2.6761   2.7042   2.7198   2.7620   2.7655   2.7968
  2.8506   2.8679   2.8730   2.9369   2.9472   3.0011   3.0665   3.0801
  3.1188   3.2168   3.2656   4.0536   4.0707   4.1740   4.2843   4.2994
  4.4139   4.4142   4.6114   4.6237   4.7077   4.8816   4.9840
 --------------------------------------------------------------
 
          Ground-State Mulliken Net Atomic Charges

     Atom                 Charge (a.u.)
  ----------------------------------------
      1 O                    -0.456285
      2 C                     0.015265
      3 C                     0.015253
      4 C                    -0.133830
      5 C                    -0.133867
      6 H                     0.204292
      7 H                     0.204275
      8 H                     0.188037
      9 H                     0.188043
     10 C                     0.645775
     11 N                    -0.666917
     12 C                    -0.272857
     13 O                    -0.484636
     14 C                     0.645738
     15 C                    -0.272774
     16 O                    -0.484663
     17 H                     0.377776
     18 H                     0.210686
     19 H                     0.210689
  ----------------------------------------
  Sum of atomic charges =     0.000000

  Building new vdw surfaces
         Merz-Kollman RESP Net Atomic Charges

     Atom                 Charge (a.u.)
  ----------------------------------------
      1 O                    -0.306220
      2 C                     0.131924
      3 C                     0.131924
      4 C                    -0.202808
      5 C                    -0.202808
      6 H                     0.134559
      7 H                     0.134559
      8 H                     0.168147
      9 H                     0.168147
     10 C                     0.599661
     11 N                    -0.539962
     12 C                    -0.273262
     13 O                    -0.489125
     14 C                     0.599661
     15 C                    -0.273262
     16 O                    -0.489125
     17 H                     0.376655
     18 H                     0.165666
     19 H                     0.165666
  ----------------------------------------
  Sum of atomic charges =     0.000000

  Related Dipole Moment =     3.3433 (X  2.5799 Y -0.0005 Z  2.1264)

 -----------------------------------------------------------------
                    Cartesian Multipole Moments
 -----------------------------------------------------------------
    Charge (ESU x 10^10)
                 0.0000
    Dipole Moment (Debye)
         X       2.5477      Y      -0.0006      Z       2.1004
       Tot       3.3019
    Quadrupole Moments (Debye-Ang)
        XX     -61.3300     XY      -0.0051     YY     -76.8228
        XZ       4.3174     YZ      -0.0046     ZZ     -66.9615
    Octopole Moments (Debye-Ang^2)
       XXX     -56.9443    XXY       0.0282    XYY      20.6750
       YYY       0.0186    XXZ       5.4289    XYZ       0.0130
       YYZ       1.8899    XZZ     -24.3577    YZZ       0.0096
       ZZZ      10.0899
    Hexadecapole Moments (Debye-Ang^3)
      XXXX   -1063.3204   XXXY      -0.0176   XXYY    -323.7220
      XYYY       0.0218   YYYY    -765.7165   XXXZ      53.9736
      XXYZ      -0.0435   XYYZ      -3.2170   YYYZ      -0.1110
      XXZZ    -227.1062   XYZZ       0.0080   YYZZ    -132.4773
      XZZZ       8.6675   YZZZ      -0.0673   ZZZZ    -194.8048
 -----------------------------------------------------------------
 Calculating analytic gradient of the SCF energy
 Gradient of SCF Energy
            1           2           3           4           5           6
    1   0.0024285   0.0066924   0.0066897   0.0041351   0.0042548   0.0003402
    2  -0.0000587  -0.0091671   0.0092407  -0.0154320   0.0153854   0.0075172
    3   0.0029095  -0.0031683  -0.0030961  -0.0029640  -0.0028813  -0.0038206
            7           8           9          10          11          12
    1   0.0003138   0.0021295   0.0020582  -0.0031082  -0.0113234  -0.0071334
    2  -0.0075468   0.0025486  -0.0024793  -0.0034981   0.0000718  -0.0026205
    3  -0.0039120   0.0020102   0.0019629   0.0036136  -0.0059235   0.0083672
           13          14          15          16          17          18
    1  -0.0017196  -0.0030300  -0.0071092  -0.0017838   0.0022885   0.0019297
    2   0.0053324   0.0036301   0.0025850  -0.0055005  -0.0000003   0.0013062
    3  -0.0019111   0.0036593   0.0083573  -0.0019472   0.0005644  -0.0009279
           19
    1   0.0019473
    2  -0.0013141
    3  -0.0008922
 Max gradient component =       1.543E-02
 RMS gradient           =       5.252E-03
 Gradient time:  CPU 71.31 s  wall 2.51 s
 FSM gradient convergence criteria satisfied
 After opt distance between the previous and current R_nodes (Angstroms): 0.1042
 After opt distance between the previous and current P_nodes (Angstroms): 0.1039
[...]
 ----------------------------------------------------------------
    1      O       1.2430348268    -0.0011418559    -1.3124434221
    2      C       1.6867157674     1.0794045462    -0.6272909563
    3      C       1.6874898897    -1.0821754402    -0.6273333685
    4      C       2.7645666851     0.6878258697     0.1884273567
    5      C       2.7653793403    -0.6894063593     0.1884368789
    6      H       1.4019148726     2.0446496289    -0.9872757103
    7      H       1.4036833168    -2.0471085278    -0.9880824083
    8      H       3.4317859347     1.3508149644     0.7248571713
    9      H       3.4335121031    -1.3513209638     0.7251988790
   10      C      -1.1843090239     1.1734623493     0.1630248928
   11      N      -1.8742344771    -0.0022537168    -0.2352531188
   12      C       0.0266118013     0.6921367783     0.9161033387
   13      O      -1.5625520480     2.2729242655    -0.0471150813
   14      C      -1.1751721165    -1.1478598147     0.1670479384
   15      C       0.0258130244    -0.6981352469     0.9157953043
   16      O      -1.5743697128    -2.2973684468    -0.0537635350
   17      H      -2.7500530327     0.0013624842    -0.6879547086
   18      H       0.4511595059     1.3328769818     1.6521326615
   19      H       0.4499186624    -1.3369408147     1.6506664496
 ----------------------------------------------------------------
 Nuclear Repulsion Energy =         699.72902353 hartrees
 There are       43 alpha and       43 beta electrons
 Applying Cartesian multipole field
    Component          Value
    ---------          -----
     (2,0,0)        1.00000E-11
     (0,2,0)        2.00000E-11
     (0,0,2)       -3.00000E-10
 Nucleus-field energy     =    -0.0000000223 hartrees
 Requested basis set is 6-31G(d)
 There are 62 shells and 194 basis functions
 A cutoff of  1.0D-12 yielded   1732 shell pairs
 There are     17869 function pairs
 Smallest overlap matrix eigenvalue = 7.10E-04
 Guess from superposition of atomic densities
 Warning:  Energy on first SCF cycle will be non-variational
 SAD guess density has 86.000000 electrons

 -----------------------------------------------------------------------
  General SCF calculation program by
  Eric Jon Sundstrom, Paul Horn, Yuezhi Mao, Dmitri Zuev, Alec White,
  David Stuck, Shaama M.S., Shane Yost, Joonho Lee, David Small,
  Daniel Levine, Susi Lehtola, Hugh Burton, Evgeny Epifanovsky
 -----------------------------------------------------------------------
 Exchange:     0.2220 Hartree-Fock + 1.0000 wB97X-D + LR-HF
 Correlation:  1.0000 wB97X-D
 Using SG-3 standard quadrature grid
 Dispersion:   Grimme D
 using 32 threads for integral computing
 -------------------------------------------------------
 OpenMP Integral computing Module                
 Release: version 1.0, May 2013, Q-Chem Inc. Pittsburgh 
 -------------------------------------------------------
 using 32 threads for integral computing
 -------------------------------------------------------
 OpenMP Integral computing Module                
 Release: version 1.0, May 2013, Q-Chem Inc. Pittsburgh 
 -------------------------------------------------------
 A restricted SCF calculation will be
 performed using DIIS, GDM
 SCF converges when RMS gradient is below 1.0e-08
 ---------------------------------------
  Cycle       Energy         DIIS error
 ---------------------------------------
    1    -592.6212702281      5.94e-02  
    2    -588.9970317040      7.50e-03  Done DIIS. Switching to GDM
 ---------------------------------------
  Cycle       Energy        RMS Gradient
 ---------------------------------------
    1    -588.9970317040      2.33e-01   Descent step
    2    -589.1983081323      7.16e-02   Normal BFGS step
    3    -589.2178350611      2.76e-02   Normal BFGS step
    4    -589.2245818425      6.40e-03   Normal BFGS step
    5    -589.2251850284      2.68e-03   Normal BFGS step
    6    -589.2252991652      1.86e-03   Normal BFGS step
    7    -589.2253283642      4.24e-04   Normal BFGS step
    8    -589.2253325793      2.32e-04   Normal BFGS step
    9    -589.2253335345      1.15e-04   Normal BFGS step
   10    -589.2253336764      4.98e-05   Normal BFGS step
   11    -589.2253337078      2.02e-05   Normal BFGS step
   12    -589.2253337124      1.27e-05   Normal BFGS step
   13    -589.2253337137      3.03e-06   Normal BFGS step
   14    -589.2253337138      1.11e-06   Normal BFGS step
   15    -589.2253337139      5.47e-07   Normal BFGS step
   16    -589.2253337139      1.33e-07   Normal BFGS step
   17    -589.2253337139      6.26e-08   Normal BFGS step
   18    -589.2253337139      2.78e-08   Normal BFGS step
   19    -589.2253337139      1.46e-08   Normal BFGS step
   20    -589.2253337139      7.60e-09  Convergence criterion met
 ---------------------------------------
 SCF time:   CPU 549.48s  wall 17.00s 
 SCF   energy in the final basis set =     -589.2253337139
 Total energy in the final basis set =     -589.2253337139
 
 --------------------------------------------------------------
 
                    Orbital Energies (a.u.)
 --------------------------------------------------------------
 
 Alpha MOs
 -- Occupied --
-19.3570 -19.2622 -19.2513 -14.4825 -10.4187 -10.4166 -10.3834 -10.3830
-10.3260 -10.3253 -10.3221 -10.3212  -1.2410  -1.1731  -1.1344  -1.0376
 -0.9288  -0.8988  -0.8667  -0.7628  -0.7075  -0.7059  -0.6900  -0.6780
 -0.6579  -0.5913  -0.5741  -0.5573  -0.5489  -0.5339  -0.5275  -0.5158
 -0.5114  -0.5056  -0.4937  -0.4752  -0.4721  -0.3905  -0.3673  -0.3572
 -0.3383  -0.3357  -0.3286
 -- Virtual --
 -0.0019   0.0592   0.1113   0.1499   0.1722   0.1805   0.1957   0.2077
  0.2227   0.2298   0.2340   0.2571   0.2592   0.2826   0.2954   0.3068
  0.3349   0.3563   0.3884   0.4216   0.4404   0.4753   0.5008   0.5243
  0.5495   0.5752   0.5927   0.6077   0.6337   0.6368   0.6478   0.6532
  0.6727   0.6812   0.6987   0.7077   0.7288   0.7320   0.7713   0.7838
  0.8042   0.8395   0.8441   0.8649   0.8689   0.8980   0.9030   0.9146
  0.9167   0.9274   0.9401   0.9603   0.9741   0.9776   0.9947   1.0045
  1.0394   1.0648   1.0759   1.0883   1.1097   1.1359   1.1579   1.1806
  1.1874   1.1885   1.2152   1.2462   1.2986   1.3651   1.3964   1.4254
  1.4364   1.4537   1.4570   1.4716   1.4825   1.4898   1.5102   1.5769
  1.6037   1.6152   1.6310   1.6923   1.7005   1.7030   1.7847   1.8481
  1.8547   1.8813   1.8966   1.9028   1.9138   1.9205   1.9388   1.9504
  2.0186   2.0347   2.0670   2.0691   2.0805   2.1197   2.1364   2.1527
  2.1622   2.1829   2.2399   2.2693   2.2768   2.2959   2.3211   2.3369
  2.3450   2.3790   2.4674   2.4724   2.4935   2.5513   2.5566   2.5840
  2.6346   2.7088   2.7177   2.7318   2.7403   2.7825   2.7878   2.8003
  2.8018   2.9091   2.9490   2.9548   3.0091   3.0389   3.0895   3.1153
  3.1723   3.2399   3.2759   4.0696   4.1228   4.1675   4.2333   4.2806
  4.4073   4.4258   4.5169   4.5950   4.6915   4.7401   4.9896
 --------------------------------------------------------------
 
          Ground-State Mulliken Net Atomic Charges

     Atom                 Charge (a.u.)
  ----------------------------------------
      1 O                    -0.367754
      2 C                     0.026208
      3 C                     0.027180
      4 C                    -0.169369
      5 C                    -0.169837
      6 H                     0.222979
      7 H                     0.225485
      8 H                     0.196415
      9 H                     0.196676
     10 C                     0.628403
     11 N                    -0.694534
     12 C                    -0.277898
     13 O                    -0.470629
     14 C                     0.631559
     15 C                    -0.263883
     16 O                    -0.516237
     17 H                     0.367597
     18 H                     0.202181
     19 H                     0.205459
  ----------------------------------------
  Sum of atomic charges =     0.000000

  Building new vdw surfaces
         Merz-Kollman RESP Net Atomic Charges

     Atom                 Charge (a.u.)
  ----------------------------------------
      1 O                    -0.100528
      2 C                    -0.074093
      3 C                    -0.074093
      4 C                    -0.141914
      5 C                    -0.141914
      6 H                     0.198922
      7 H                     0.198922
      8 H                     0.161576
      9 H                     0.161576
     10 C                     0.660463
     11 N                    -0.666515
     12 C                    -0.306761
     13 O                    -0.503316
     14 C                     0.660463
     15 C                    -0.306761
     16 O                    -0.503316
     17 H                     0.404005
     18 H                     0.186642
     19 H                     0.186642
  ----------------------------------------
  Sum of atomic charges =     0.000000

  Related Dipole Moment =     4.0672 (X  3.9309 Y  0.1552 Z  1.0322)

 -----------------------------------------------------------------
                    Cartesian Multipole Moments
 -----------------------------------------------------------------
    Charge (ESU x 10^10)
                -0.0000
    Dipole Moment (Debye)
         X       3.8725      Y       0.4147      Z       1.0320
       Tot       4.0291
    Quadrupole Moments (Debye-Ang)
        XX     -60.8331     XY      -0.8310     YY     -75.9868
        XZ       4.0113     YZ      -0.0665     ZZ     -65.4724
    Octopole Moments (Debye-Ang^2)
       XXX     -51.2099    XXY       1.5563    XYY      22.8957
       YYY       3.2213    XXZ       6.1131    XYZ       0.0384
       YYZ       0.3609    XZZ     -20.2835    YZZ       0.2961
       ZZZ       5.4988
    Hexadecapole Moments (Debye-Ang^3)
      XXXX   -1138.2155   XXXY      -4.0217   XXYY    -338.6918
      XYYY      -5.3578   YYYY    -754.9978   XXXZ      88.9550
      XXYZ      -0.1340   XYYZ       5.6457   YYYZ      -0.2647
      XXZZ    -240.3292   XYZZ      -0.7566   YYZZ    -135.9061
      XZZZ      33.4777   YZZZ      -0.3992   ZZZZ    -232.3501
 -----------------------------------------------------------------
 Calculating analytic gradient of the SCF energy
 Gradient of SCF Energy
            1           2           3           4           5           6
    1   0.0045973  -0.0150878  -0.0158655   0.0053790   0.0056206   0.0023251
    2   0.0005416   0.0127875  -0.0133779  -0.0135230   0.0135977  -0.0062403
    3  -0.0034882  -0.0034952  -0.0029015   0.0067319   0.0069825   0.0058087
            7           8           9          10          11          12
    1   0.0027145   0.0032104   0.0032732  -0.0032049  -0.0439969   0.0113471
    2   0.0064046   0.0002990  -0.0002878   0.0552940  -0.0056446   0.0202903
    3   0.0056750  -0.0012553  -0.0011818  -0.0049531  -0.0199319   0.0010122
           13          14          15          16          17          18
    1   0.0107576   0.0317347   0.0104182  -0.0175797   0.0177241  -0.0067302
    2  -0.0460253   0.0335893  -0.0278385  -0.0332461   0.0019761  -0.0069146
    3   0.0068915   0.0140524   0.0013448  -0.0087039   0.0133854  -0.0077797
           19
    1  -0.0066370
    2   0.0083182
    3  -0.0081939
 Max gradient component =       5.529E-02
 RMS gradient           =       1.644E-02
 Gradient time:  CPU 69.00 s  wall 2.46 s
 E1 = -589.2247866, E2 = -589.2253337, Emax = -589.2250550
 Iteration 5, Curvature = -0.2958334
 Curvature, final (in Hartree/Bohr^2) = -0.0828418
 ----------------------------------------------------------------
             Standard Nuclear Orientation (Angstroms)
    I     Atom           X                Y                Z
 ----------------------------------------------------------------
    1      O       1.2431138395    -0.0011439328    -1.3127676410
    2      C       1.6845817856     1.0792129166    -0.6257409925
    3      C       1.6853789878    -1.0819751948    -0.6258134085
    4      C       2.7644712169     0.6874529162     0.1888812968
    5      C       2.7652857268    -0.6890436980     0.1888880551
    6      H       1.4020471993     2.0445443853    -0.9871301772
    7      H       1.4038097316    -2.0470183122    -0.9879367428
    8      H       3.4318757414     1.3506294368     0.7246692970
    9      H       3.4336053076    -1.3511415787     0.7250153752
   10      C      -1.1838382562     1.1735216673     0.1627599877
   11      N      -1.8740344164    -0.0022686662    -0.2347841635
   12      C       0.0287047709     0.6927011499     0.9139334410
   13      O      -1.5628152476     2.2728220465    -0.0469191596
   14      C      -1.1747964981    -1.1478803850     0.1668530697
   15      C       0.0278831355    -0.6986843097     0.9136426300
   16      O      -1.5745045086    -2.2972969171    -0.0536569581
   17      H      -2.7499510964     0.0013602186    -0.6876886004
   18      H       0.4506738030     1.3326066582     1.6521558166
   19      H       0.4494225343    -1.3366578249     1.6507157783
 ----------------------------------------------------------------
 Nuclear Repulsion Energy =         699.83917236 hartrees
 There are       43 alpha and       43 beta electrons
 Requested basis set is 6-31G(d)
 There are 62 shells and 194 basis functions
 Geometry Optimization Parameters
   NAtoms,    NIC,     NZ,  NCons,   NDum,   NFix, NCnnct, MaxDiis
       19     168       0       0       0       0       0       0


** GEOMETRY OPTIMIZATION IN DELOCALIZED INTERNAL COORDINATES **
   Searching for a Minimum

   Optimization Cycle:   1

                       Coordinates (Angstroms)
     ATOM                X               Y               Z
      1  O         1.2431138395   -0.0011439328   -1.3127676410
      2  C         1.6845817856    1.0792129166   -0.6257409925
      3  C         1.6853789878   -1.0819751948   -0.6258134085
      4  C         2.7644712169    0.6874529162    0.1888812968
      5  C         2.7652857268   -0.6890436980    0.1888880551
      6  H         1.4020471993    2.0445443853   -0.9871301772
      7  H         1.4038097316   -2.0470183122   -0.9879367428
      8  H         3.4318757414    1.3506294368    0.7246692970
      9  H         3.4336053076   -1.3511415787    0.7250153752
     10  C        -1.1838382562    1.1735216673    0.1627599877
     11  N        -1.8740344164   -0.0022686662   -0.2347841635
     12  C         0.0287047709    0.6927011499    0.9139334410
     13  O        -1.5628152476    2.2728220465   -0.0469191596
     14  C        -1.1747964981   -1.1478803850    0.1668530697
     15  C         0.0278831355   -0.6986843097    0.9136426300
     16  O        -1.5745045086   -2.2972969171   -0.0536569581
     17  H        -2.7499510964    0.0013602186   -0.6876886004
     18  H         0.4506738030    1.3326066582    1.6521558166
     19  H         0.4494225343   -1.3366578249    1.6507157783
   Point Group: c1    Number of degrees of freedom:    51


   Energy is   -589.225333714


 Attempting to generate delocalized internal coordinates
 Initial Hessian constructed with Jon Baker's OPTIMIZE code

 51 Hessian modes will be used to form the next step
  Hessian Eigenvalues:
     0.008483    0.010049    0.012305    0.012571    0.014370    0.022386
     0.023426    0.029049    0.035073    0.039326    0.039752    0.042662
     0.043070    0.046366    0.051438    0.052586    0.069102    0.071355
     0.076818    0.080555    0.098331    0.102593    0.135437    0.139610
     0.153153    0.159641    0.159825    0.159919    0.165490    0.210263
     0.249495    0.249570    0.302944    0.316603    0.349211    0.356581
     0.356667    0.361899    0.373846    0.374185    0.377554    0.379736
     0.382512    0.417176    0.436687    0.450754    0.486619    0.501288
     0.502207    0.883310    1.146708

 Minimum search - taking simple RFO step
 Searching for Lamda that Minimizes Along All modes
 Value Taken    Lamda =  -0.01380693
 Calculated Step too Large.  Step scaled by  0.788962
 Step Taken.  Stepsize is  0.300000

                             Maximum     Tolerance    Cnvgd?
         Gradient           0.036578      0.000300      NO
         Displacement       0.119104      0.001200      NO
         Energy change     *********      0.000001      NO


 New Cartesian Coordinates Obtained by Inverse Iteration

 Displacement from previous Coordinates is:  0.400202
 ----------------------------------------------------------------
             Standard Nuclear Orientation (Angstroms)
    I     Atom           X                Y                Z
 ----------------------------------------------------------------
    1      O       1.2111754856    -0.0008051950    -1.3122945250
    2      C       1.6725312445     1.0753427305    -0.6370974690
    3      C       1.6722305265    -1.0778411883    -0.6381782152
    4      C       2.7491600126     0.6904745785     0.1680511919
    5      C       2.7489411043    -0.6938493411     0.1673305558
    6      H       1.3812567869     2.0436204712    -1.0097670979
    7      H       1.3790778691    -2.0454986616    -1.0108362762
    8      H       3.4039573968     1.3567403875     0.7119935844
    9      H       3.4032686751    -1.3606243195     0.7111979109
   10      C      -1.1822606009     1.1667423138     0.1977324261
   11      N      -1.8195042225    -0.0043238076    -0.2573426579
   12      C       0.0174809112     0.6882844432     0.9599273893
   13      O      -1.5352877058     2.2877712635    -0.0376069804
   14      C      -1.1771575374    -1.1513074482     0.1976401445
   15      C       0.0145148146    -0.6907971466     0.9581473576
   16      O      -1.5334182124    -2.2924501487    -0.0407756756
   17      H      -2.6642860032    -0.0064626452    -0.7995030236
   18      H       0.4568951579     1.3362367973     1.6997584625
   19      H       0.4523380541    -1.3395125078     1.6966998018
 ----------------------------------------------------------------
 Nuclear Repulsion Energy =         701.27908288 hartrees
 There are       43 alpha and       43 beta electrons



















































 Eigenvalues after right structure
 -0.1100884 -0.0000000 -0.0000000 -0.0000000 0.0000000 0.0000000 0.0000188 0.0033213 0.0065586 0.0097341 0.0142729 0.0165329 0.0190897 0.0428467 0.0513732 0.0542562 0.0643330 0.0702672 0.0716721 0.0755884 0.0777319 0.0811078 0.0849712 0.0873763 0.0954356 0.1102212 0.1365632 0.1380587 0.1460065 0.1563642 0.1702426 0.1782154 0.2049628 0.2283203 0.2621965 0.2888283 0.3315022 0.3595465 0.4214435 0.4647401 0.4944957 0.5884498 0.6558407 0.6820530 0.8474444 0.8792708 0.9823542 1.1533928 1.3223610 1.3813443 1.3927240 1.4109105 1.5179692 1.5261804 1.5631356 2.1174345 2.5965606
Archival summary:
1\1\nid12990\JobtypUnspecified\ProcedureUnspecified\6-31G*\3187\ewcss\FriSep2715:56:412019FriSep2715:56:412019\0\\#,JobtypUnspecified,ProcedureUnspecified,6-31G*,\\0,1\O\C,1,1.3516\H,2,1.07763,1,116.769\C,1,1.35167,2,105.596,3,-178.214,0\H,4,1.07758,1,116.761,2,178.102,0\C,2,1.3984,1,109.347,3,-162.566,0\H,6,1.08099,2,125.905,1,170.878,0\C,6,1.38432,2,105.95,1,-11.9472,0\H,8,1.08098,6,128.058,2,-177.05,0\C,2,2.33227,1,88.1495,3,101.609,0\H,10,1.07716,2,94.6458,1,165.374,0\C,10,1.37909,2,99.5902,1,36.5012,0\H,12,1.0761,10,126.947,2,103.29,0\C,12,1.48678,10,108.187,2,-103.452,0\O,14,1.219,12,128.627,10,179.435,0\N,14,1.39111,12,106.381,10,1.62622,0\H,16,1.00379,14,124.298,12,-179.569,0\C,16,1.40875,14,111.77,12,-2.87276,0\O,18,1.19863,16,125.508,14,-179.334,0\\\@

 Total job time:  1119.35s(wall), 33466.42s(cpu) 
 Fri Sep 27 15:56:41 2019

        *************************************************************
        *                                                           *
        *  Thank you very much for using Q-Chem.  Have a nice day.  *
        *                                                           *
        *************************************************************


