19
image # 1 Energy = -589.24457
O 1.26860   0.00010   -1.11745  
C 1.90876   1.08832   -0.62652  
C 1.90843   -1.08858  -0.62713  
C 2.94410   0.71623   0.16713   
C 2.94388   -0.71725  0.16673   
H 1.51027   2.04313   -0.93184  
H 1.50966   -2.04311  -0.93299  
H 3.62487   1.37272   0.68912   
H 3.62446   -1.37424  0.68835   
C -1.39447  1.15391   0.21068   
N -2.04933  0.00038   -0.21331  
C -0.19773  0.66566   0.98010   
O -1.73269  2.29058   -0.00669  
C -1.39484  -1.15359  0.21001   
C -0.19794  -0.66618  0.97972   
O -1.73342  -2.29004  -0.00801  
H -2.89880  0.00068   -0.75755  
H 0.50758   1.34890   1.43373   
H 0.50715   -1.34990  1.43295   
19
image # 2 Energy = -589.24308
O 1.28073   -0.00011  -1.15484  
C 1.87358   1.08183   -0.61897  
C 1.87333   -1.08241  -0.61954  
C 2.91836   0.71030   0.17126   
C 2.91829   -0.71148  0.17096   
H 1.49163   2.04663   -0.93058  
H 1.49089   -2.04682  -0.93197  
H 3.60723   1.37089   0.69053   
H 3.60694   -1.37236  0.68984   
C -1.35862  1.14874   0.20133   
N -2.03426  0.00035   -0.21135  
C -0.17469  0.66227   0.96956   
O -1.71495  2.29730   -0.01701  
C -1.35918  -1.14887  0.20056   
C -0.17494  -0.66368  0.96912   
O -1.71618  -2.29707  -0.01862  
H -2.88346  0.00070   -0.74191  
H 0.50573   1.34743   1.45876   
H 0.50553   -1.34927  1.45812   
19
image # 3 Energy = -589.24207
O 1.31100   -0.00023  -1.21391  
C 1.84462   1.07924   -0.62627  
C 1.84445   -1.08001  -0.62682  
C 2.88034   0.71080   0.17532   
C 2.88036   -0.71212  0.17509   
H 1.46836   2.04711   -0.92957  
H 1.46767   -2.04762  -0.93110  
H 3.57907   1.36560   0.69130   
H 3.57908   -1.36687  0.69085   
C -1.32195  1.16288   0.18192   
N -2.00302  0.00027   -0.20438  
C -0.15242  0.66026   0.98122   
O -1.68278  2.28302   -0.02631  
C -1.32279  -1.16362  0.18102   
C -0.15257  -0.66216  0.98080   
O -1.68474  -2.28320  -0.02824  
H -2.86943  0.00076   -0.72693  
H 0.49456   1.34236   1.49499   
H 0.49442   -1.34510  1.49443   
19
image # 4 Energy = -589.24075
O 1.31450   -0.00030  -1.27179  
C 1.82882   1.09258   -0.64225  
C 1.82884   -1.09367  -0.64277  
C 2.84546   0.71694   0.18694   
C 2.84536   -0.71833  0.18660   
H 1.44560   2.04268   -0.93101  
H 1.44522   -2.04350  -0.93247  
H 3.54221   1.35609   0.69065   
H 3.54267   -1.35711  0.69055   
C -1.28982  1.14731   0.16868   
N -1.96110  -0.00006  -0.20050  
C -0.12705  0.67256   0.98801   
O -1.65174  2.28886   -0.03949  
C -1.29089  -1.14851  0.16768   
C -0.12708  -0.67514  0.98770   
O -1.65449  -2.28939  -0.04174  
H -2.85146  0.00084   -0.71244  
H 0.48422   1.34065   1.54011   
H 0.48386   -1.34405  1.53943   
19
image # 5 Energy = -589.23967
O 1.28250   -0.00061  -1.28145  
C 1.81762   1.09024   -0.64161  
C 1.81781   -1.09194  -0.64214  
C 2.81878   0.70681   0.19184   
C 2.81888   -0.70842  0.19157   
H 1.42948   2.04812   -0.93907  
H 1.42938   -2.04937  -0.94048  
H 3.51988   1.35443   0.69591   
H 3.52059   -1.35518  0.69595   
C -1.27416  1.14904   0.17124   
N -1.94951  -0.00028  -0.21584  
C -0.09377  0.66725   0.95697   
O -1.62999  2.28790   -0.04818  
C -1.27536  -1.15046  0.17019   
C -0.09405  -0.67073  0.95649   
O -1.63315  -2.28846  -0.05057  
H -2.82416  0.00086   -0.69711  
H 0.48565   1.34995   1.57851   
H 0.48510   -1.35374  1.57771   
19
image # 6 Energy = -589.23669
O 1.27605   -0.00105  -1.27501  
C 1.78216   1.07563   -0.64206  
C 1.78260   -1.07773  -0.64248  
C 2.80717   0.70127   0.19588   
C 2.80753   -0.70311  0.19574   
H 1.42079   2.05496   -0.94668  
H 1.42084   -2.05680  -0.94819  
H 3.50551   1.35398   0.70154   
H 3.50643   -1.35453  0.70167   
C -1.25778  1.15215   0.17160   
N -1.93156  -0.00010  -0.21889  
C -0.05515  0.67710   0.93553   
O -1.61841  2.28800   -0.05186  
C -1.25910  -1.15392  0.17050   
C -0.05573  -0.68092  0.93479   
O -1.62174  -2.28859  -0.05430  
H -2.81514  0.00084   -0.69350  
H 0.47826   1.34796   1.59715   
H 0.47767   -1.35209  1.59640   
19
image # 7 Energy = -589.23293
O 1.26581   -0.00128  -1.28065  
C 1.74369   1.08065   -0.63943  
C 1.74441   -1.08310  -0.63976  
C 2.79277   0.69665   0.19450   
C 2.79324   -0.69844  0.19434   
H 1.41487   2.05114   -0.95781  
H 1.41538   -2.05333  -0.95926  
H 3.48291   1.35351   0.70990   
H 3.48427   -1.35401  0.71024   
C -1.23105  1.15724   0.17131   
N -1.90440  -0.00007  -0.22030  
C -0.01999  0.67239   0.92070   
O -1.60260  2.28601   -0.05440  
C -1.23242  -1.15839  0.17021   
C -0.02060  -0.67641  0.92002   
O -1.60619  -2.28727  -0.05694  
H -2.80264  0.00082   -0.69098  
H 0.46665   1.34320   1.61779   
H 0.46584   -1.34749  1.61689   
19
image # 8 Energy = -589.23291
O 1.25214   -0.00132  -1.30982  
C 1.72187   1.07875   -0.64674  
C 1.72294   -1.08123  -0.64709  
C 2.75908   0.69941   0.18140   
C 2.75992   -0.70105  0.18138   
H 1.40076   2.04759   -0.98554  
H 1.40234   -2.05003  -0.98644  
H 3.43407   1.35040   0.72575   
H 3.43603   -1.35070  0.72635   
C -1.18697  1.15522   0.16829   
N -1.86682  0.00021   -0.23191  
C 0.00894   0.67887   0.93599   
O -1.56709  2.28326   -0.05761  
C -1.19042  -1.16140  0.16599   
C 0.00826   -0.68218  0.93539   
O -1.56924  -2.28015  -0.05919  
H -2.76574  0.00068   -0.68502  
H 0.44575   1.33404   1.65804   
H 0.44438   -1.33867  1.65676   
19
image # 9 Energy = -589.22505
O 1.24464   -0.00154  -1.28929  
C 1.67770   1.07755   -0.59690  
C 1.67879   -1.08038  -0.59738  
C 2.78400   0.68228   0.19254   
C 2.78459   -0.68408  0.19245   
H 1.41256   2.04755   -0.97365  
H 1.41349   -2.04994  -0.97471  
H 3.46129   1.35238   0.71557   
H 3.46268   -1.35290  0.71575   
C -1.20077  1.14470   0.16105   
N -1.88700  0.00203   -0.21603  
C 0.02881   0.69423   0.87676   
O -1.59202  2.29736   -0.04574  
C -1.21060  -1.17036  0.15553   
C 0.02837   -0.69623  0.87618   
O -1.58775  -2.27690  -0.04430  
H -2.76970  0.00023   -0.68663  
H 0.46172   1.33748   1.63067   
H 0.46069   -1.34215  1.62968   
19
image # 10 Energy = -589.22612
O 1.23822   -0.00134  -1.31187  
C 1.64863   1.07255   -0.57984  
C 1.64977   -1.07511  -0.58036  
C 2.76622   0.68663   0.18433   
C 2.76687   -0.68820  0.18426   
H 1.40608   2.04557   -0.98628  
H 1.40750   -2.04792  -0.98693  
H 3.43944   1.34990   0.72148   
H 3.44106   -1.35040  0.72180   
C -1.18313  1.14879   0.16000   
N -1.85665  0.00109   -0.21262  
C 0.06217   0.70687   0.86576   
O -1.57175  2.29297   -0.04871  
C -1.19070  -1.16695  0.15556   
C 0.06160   -0.70908  0.86519   
O -1.56960  -2.27878  -0.04820  
H -2.75889  0.00036   -0.68372  
H 0.44904   1.33094   1.64849   
H 0.44780   -1.33556  1.64740   
19
image # 11 Energy = -589.22703
O 1.25420   -0.00140  -1.31125  
C 1.61342   1.06851   -0.55483  
C 1.61446   -1.07076  -0.55509  
C 2.78513   0.67848   0.20333   
C 2.78582   -0.68011  0.20332   
H 1.41281   2.04907   -0.96805  
H 1.41372   -2.05136  -0.96924  
H 3.46697   1.34859   0.70852   
H 3.46846   -1.34876  0.70884   
C -1.19825  1.15846   0.15596   
N -1.87461  0.00040   -0.20179  
C 0.08713   0.71165   0.82562   
O -1.59026  2.28807   -0.04731  
C -1.20112  -1.16453  0.15399   
C 0.08663   -0.71492  0.82514   
O -1.59196  -2.28461  -0.04881  
H -2.77470  0.00067   -0.67483  
H 0.44938   1.32969   1.63002   
H 0.44849   -1.33377  1.62914   
19
image # 12 Energy = -589.23311
O 1.26395   -0.00104  -1.34186  
C 1.58235   1.07343   -0.49849  
C 1.58308   -1.07640  -0.49912  
C 2.78574   0.69033   0.20528   
C 2.78611   -0.69151  0.20511   
H 1.42143   2.04589   -0.95738  
H 1.42220   -2.04748  -0.95857  
H 3.49208   1.35074   0.70210   
H 3.49369   -1.35099  0.70257   
C -1.19464  1.16261   0.16016   
N -1.91104  0.00017   -0.20535  
C 0.11268   0.72654   0.77284   
O -1.61113  2.28898   -0.04533  
C -1.19861  -1.17062  0.15782   
C 0.11217   -0.72935  0.77230   
O -1.61196  -2.28330  -0.04646  
H -2.77829  0.00068   -0.66795  
H 0.45413   1.33648   1.62859   
H 0.45349   -1.34028  1.62797   
19
image # 13 Energy = -589.24577
O 1.27653   -0.00109  -1.32825  
C 1.54328   1.05647   -0.47583  
C 1.54380   -1.05872  -0.47626  
C 2.79009   0.66992   0.22429   
C 2.79059   -0.67128  0.22424   
H 1.41905   2.04968   -0.93802  
H 1.41944   -2.05147  -0.93985  
H 3.50809   1.34870   0.68954   
H 3.50919   -1.34864  0.68971   
C -1.20080  1.16223   0.14753   
N -1.90086  0.00007   -0.18420  
C 0.14498   0.74343   0.73763   
O -1.61980  2.28847   -0.04523  
C -1.20205  -1.16368  0.14647   
C 0.14456   -0.74653  0.73716   
O -1.62261  -2.28839  -0.04730  
H -2.79187  0.00084   -0.65973  
H 0.45372   1.32510   1.60854   
H 0.45340   -1.32842  1.60806   
19
image # 14 Energy = -589.25982
O 1.27761   -0.00071  -1.33206  
C 1.49612   1.07601   -0.44559  
C 1.49646   -1.07781  -0.44613  
C 2.79344   0.66833   0.23121   
C 2.79356   -0.66944  0.23098   
H 1.42321   2.03382   -0.92378  
H 1.42343   -2.03497  -0.92565  
H 3.51760   1.35016   0.68653   
H 3.51858   -1.35039  0.68666   
C -1.19968  1.17173   0.13708   
N -1.89710  -0.00001  -0.16967  
C 0.18038   0.75504   0.69996   
O -1.62503  2.28415   -0.04130  
C -1.20072  -1.17240  0.13616   
C 0.18012   -0.75765  0.69956   
O -1.62771  -2.28441  -0.04328  
H -2.80127  0.00084   -0.65984  
H 0.45534   1.31990   1.60124   
H 0.45511   -1.32275  1.60086   
19
image # 15 Energy = -589.27085
O 1.25142   -0.00044  -1.32034  
C 1.46530   1.05999   -0.42608  
C 1.46540   -1.06122  -0.42662  
C 2.78596   0.68025   0.24034   
C 2.78612   -0.68138  0.24015   
H 1.40747   2.03726   -0.91775  
H 1.40740   -2.03794  -0.91965  
H 3.50093   1.34588   0.68468   
H 3.50138   -1.34648  0.68448   
C -1.18323  1.17232   0.12555   
N -1.87812  0.00022   -0.15872  
C 0.21019   0.76321   0.67648   
O -1.60481  2.28549   -0.04931  
C -1.18414  -1.17303  0.12473   
C 0.20996   -0.76523  0.67605   
O -1.60678  -2.28527  -0.05103  
H -2.78629  0.00074   -0.64149  
H 0.45597   1.30231   1.59289   
H 0.45571   -1.30463  1.59245   
19
image # 16 Energy = -589.27743
O 1.22432   -0.00020  -1.32248  
C 1.44778   1.07025   -0.41472  
C 1.44771   -1.07127  -0.41528  
C 2.75512   0.65931   0.23489   
C 2.75506   -0.66040  0.23460   
H 1.38257   2.03190   -0.90984  
H 1.38226   -2.03221  -0.91159  
H 3.48280   1.35367   0.69290   
H 3.48294   -1.35472  0.69249   
C -1.14651  1.15741   0.12335   
N -1.86125  0.00015   -0.15617  
C 0.22884   0.76921   0.65920   
O -1.57592  2.29907   -0.06866  
C -1.14704  -1.15728  0.12267   
C 0.22857   -0.77069  0.65880   
O -1.57754  -2.29905  -0.07031  
H -2.76518  0.00070   -0.61770  
H 0.45775   1.28721   1.59878   
H 0.45742   -1.28905  1.59825   
19
image # 17 Energy = -589.28377
O 1.20559   -0.00007  -1.32538  
C 1.41809   1.05822   -0.41176  
C 1.41787   -1.05878  -0.41228  
C 2.74210   0.66047   0.24074   
C 2.74204   -0.66158  0.24047   
H 1.35543   2.03970   -0.90748  
H 1.35489   -2.03984  -0.90904  
H 3.45022   1.35039   0.69476   
H 3.44996   -1.35170  0.69410   
C -1.12582  1.16982   0.11446   
N -1.83310  0.00033   -0.15294  
C 0.25270   0.76830   0.65596   
O -1.53263  2.29130   -0.08578  
C -1.12629  -1.16972  0.11377   
C 0.25247   -0.76923  0.65555   
O -1.53371  -2.29094  -0.08724  
H -2.74128  0.00062   -0.59143  
H 0.45558   1.26926   1.60328   
H 0.45521   -1.27072  1.60268   
19
image # 18 Energy = -589.28627
O 1.18321   0.00018   -1.32916  
C 1.39905   1.06384   -0.40681  
C 1.39872   -1.06406  -0.40742  
C 2.71283   0.66533   0.24824   
C 2.71262   -0.66632  0.24787   
H 1.33220   2.03241   -0.89889  
H 1.33160   -2.03234  -0.90003  
H 3.42567   1.34703   0.69398   
H 3.42526   -1.34849  0.69322   
C -1.09327  1.16964   0.10291   
N -1.79894  0.00032   -0.14303  
C 0.27326   0.77120   0.64228   
O -1.50226  2.28741   -0.09606  
C -1.09364  -1.16936  0.10223   
C 0.27302   -0.77167  0.64184   
O -1.50300  -2.28689  -0.09737  
H -2.71727  0.00059   -0.56717  
H 0.44994   1.25207   1.60558   
H 0.44953   -1.25315  1.60486   
